/*--------------------------------*- C++ -*----------------------------------*\
  =========                 |
  \\      /  F ield         | OpenFOAM: The Open Source CFD Toolbox
   \\    /   O peration     | Website:  https://openfoam.org
    \\  /    A nd           | Version:  6
     \\/     M anipulation  |
\*---------------------------------------------------------------------------*/
FoamFile
{
    version     2.0;
    format      ascii;
    class       volScalarField;
    location    "10";
    object      p;
}
// * * * * * * * * * * * * * * * * * * * * * * * * * * * * * * * * * * * * * //

dimensions      [0 2 -2 0 0 0 0];

internalField   nonuniform List<scalar> 
918
(
0.188822
0.963283
0.00531273
0.188978
0.00123582
0.93159
-0.846156
0.386503
0.1692
-0.120445
0.0267256
0.159597
0.78842
0.558249
-1.48908
0.0129873
0.338235
-0.63906
0.166084
0.00832648
0.46549
0.176501
0.179225
0.170686
0.21516
0.534148
0.667305
-0.00302424
-0.00216917
-0.000221218
0.00015929
0.000246775
0.00881337
0.814782
0.866643
0.889683
0.1364
0.0574611
-0.719768
-0.787302
-0.745745
-0.856667
0.370575
0.372907
-0.524095
0.38236
0.391491
0.16011
0.168989
0.169688
0.171367
0.169663
0.171554
0.303606
-0.132104
-0.218492
-0.08755
-0.0727011
0.0881322
0.0246486
0.0151954
0.0282123
0.0284742
0.0978591
0.156835
0.153529
0.162322
0.175778
0.903435
0.877282
0.903193
0.813894
0.831472
0.765671
0.739271
0.577494
0.60081
0.544011
0.53328
-1.94989
-2.89635
-0.90769
-0.624002
0.00100686
0.0209995
0.0336494
0.317719
0.320898
0.331488
0.340697
0.804706
-0.592728
-0.757607
0.166896
0.164738
0.175601
0.177219
0.17158
0.172463
0.0145114
0.0151603
-0.00104728
0.00803131
0.00621594
0.439652
0.43328
0.170696
0.165455
0.182269
0.204639
0.191329
-0.0676831
0.236386
0.267166
0.359811
0.527766
0.520973
0.530898
0.642028
0.608193
0.699668
0.720452
0.00600629
0.00188368
0.0147448
0.0128807
0.0150182
0.137171
0.130301
0.147067
0.138914
0.143625
-0.0288226
-0.187981
0.133874
0.104769
-0.640892
-0.696552
-0.680626
-0.734408
-0.839697
0.238676
0.360119
0.364162
-0.540177
-0.444927
-0.600888
-0.409545
-0.467304
0.143726
0.152727
0.146369
0.161729
0.160065
0.159489
0.172645
0.170141
0.171791
0.335232
0.414903
0.255866
0.232298
-0.411248
-0.256915
-0.370197
-0.0216618
-0.0129701
0.096956
0.110678
0.0824496
0.0740098
-0.00501761
0.00620621
-0.0030345
0.0280126
0.0322497
0.0890782
0.0792993
0.107148
0.112966
0.149202
0.14748
0.151733
0.149049
0.691823
0.712794
0.719743
0.696435
-3.87025
-6.48711
-0.2716
-0.108851
0.00119492
0.0023776
0.000747402
0.00129058
0.00291199
0.00180278
0.0478461
0.0412935
0.0379057
0.0378761
0.305429
0.30345
0.807484
0.868442
0.724575
0.699176
0.151754
0.156126
0.162333
0.157183
0.0288673
0.0203913
0.0284488
0.392374
0.412553
0.41041
-0.111075
-0.193396
-0.0174011
0.0079718
0.293242
0.274003
0.297701
0.42367
0.466435
0.734861
0.759035
0.744432
0.757277
0.808041
0.830834
0.795286
0.118065
0.125512
0.122345
0.155723
0.151448
0.153005
0.146113
0.148991
0.148969
-0.31217
-0.689656
-0.197037
-0.114252
0.0947141
0.0239689
0.404634
0.549171
0.339731
0.353743
0.35786
-0.344085
-0.404597
0.20256
0.181515
0.0377715
0.0644793
0.0514265
0.667704
0.626302
0.675376
0.649787
0.615208
0.639496
-0.635159
-2.40419
-1.39711
0.297422
0.091893
0.187609
0.0652065
0.0528928
0.0561695
0.840808
0.868076
0.458081
0.60223
0.560708
0.495925
0.524411
0.58152
0.514254
0.547434
0.580439
0.556334
0.0110864
-0.242626
-0.162474
0.668942
0.777762
-0.217889
-0.294859
-0.326426
0.120309
0.156983
0.139881
0.857686
0.803004
0.864216
0.168209
0.16948
0.00911472
0.0136452
0.171115
0.170366
0.0061352
0.0125669
0.192945
-1.27422
-0.227674
0.164282
0.15051
0.167946
-0.07606
0.291812
0.0305544
0.0975762
0.0616371
0.154003
0.108371
0.0684033
0.00709461
0.0231337
0.0183709
-0.394778
0.162767
0.159687
0.166685
0.16894
0.168635
0.00829252
0.00975691
0.00537403
0.0143624
0.00889671
0.0105948
0.138181
0.145774
-0.526272
0.167758
0.168893
0.169068
0.165372
0.167974
0.168048
0.0194106
0.0133416
0.0174509
-0.103735
0.0126263
0.411669
0.514398
0.336322
0.156364
-0.129549
0.330021
0.393428
0.301049
0.457268
0.339406
0.363973
-0.177153
-0.289814
-0.130713
-0.196628
0.160565
0.158427
0.148906
0.142369
0.158317
0.158019
0.164028
0.1626
0.166035
0.165898
-0.042755
-0.0494176
-0.10319
-0.173039
0.313944
0.402058
0.238889
0.239527
0.144388
0.0294446
0.0295814
0.0289266
0.015434
0.0694204
0.0668836
0.0807356
0.0785221
0.0522831
0.0501587
0.0656274
0.0626616
0.0676575
0.150189
0.150591
0.152277
0.160169
0.113621
0.117977
0.087194
0.106387
0.0920682
0.0410466
0.0677722
0.0471939
0.00774973
0.00953028
0.0056913
0.0291355
0.0356191
0.0163074
0.0124165
0.0139783
0.0105292
0.0111538
0.0209551
0.0262605
-0.367188
-0.499669
0.792267
0.649616
0.30922
0.154517
0.159514
0.156622
0.160217
0.163714
0.165155
0.162317
0.160276
0.147075
0.150264
0.145856
0.144053
-0.509808
-0.569575
-0.41552
-0.476441
-0.106468
0.279144
0.0197552
-0.0442318
-0.0576978
0.158807
0.337977
0.316175
0.449796
0.44845
-0.728147
-0.30018
-0.644577
-0.112561
-0.148047
0.428753
0.476852
0.498878
0.451934
0.400477
-0.316023
0.18674
-0.391201
-0.364757
-0.185427
-0.25414
0.390966
0.325861
0.333802
0.354037
0.371015
0.328624
0.313011
0.305668
0.341695
0.347608
0.160887
-0.065915
-0.124298
-0.166066
0.306265
0.186342
0.241125
0.158124
0.150693
0.154969
0.153708
0.140413
0.145212
0.139919
0.146555
0.147746
0.157452
0.156147
0.152708
0.157219
-0.0299108
-0.0152362
-0.0765384
-0.271547
-0.217041
-0.29362
-0.141458
0.120388
0.112256
0.347567
0.371289
0.0575867
-0.16405
-0.107404
-0.131778
0.145222
0.116413
0.111915
0.1591
0.181857
0.151175
0.211239
0.193063
0.0448949
0.0582476
0.0377247
0.03728
0.102784
0.12299
0.121072
0.0520976
0.0502302
0.0316115
0.0288973
0.0796717
0.0479406
0.0635678
0.0704605
0.0246659
0.0290997
0.0325382
0.0465527
0.0441645
0.0474026
0.146231
0.147685
0.146936
0.161698
0.17151
0.182955
0.156408
0.131529
0.122536
0.124802
0.108145
0.113612
0.116594
0.12392
0.138364
0.144869
0.144305
0.145444
0.13027
0.132061
0.119018
0.123933
0.104792
0.086066
0.0727238
0.018186
0.0149748
0.0162799
0.0135517
0.010477
0.00993931
0.0463773
0.0365877
0.0426705
0.0386077
0.0421775
0.0188939
0.0226477
-0.27283
-0.147532
-0.530373
-0.461438
-0.546729
0.738974
0.808036
0.634638
0.495794
0.54992
0.671522
0.737053
0.438399
0.535971
0.530985
0.0725314
0.745997
0.158499
0.15769
0.153757
0.153579
0.157585
-0.430574
-0.35157
-0.269288
-0.218072
-0.015095
0.104175
-0.431275
-0.278058
-0.127814
-0.228031
0.270407
0.284558
0.233499
0.25957
0.254703
0.0896653
0.154413
0.206008
0.156466
0.21452
0.238465
0.188637
0.226224
0.164045
0.121359
0.121272
0.0687168
0.0968108
0.0764173
0.0471186
0.143286
0.127003
0.13562
0.128307
0.145135
0.177933
0.169601
0.187078
0.20883
0.134643
0.097111
0.10935
0.130936
0.0906997
0.102072
0.119913
-0.120267
-0.119609
-0.0525718
-0.376588
-0.262941
-0.243416
-0.279632
-0.331329
-0.0212787
-0.67428
-0.61489
-1.2936
0.146344
0.485213
0.348422
0.357672
0.367923
0.348768
0.354889
0.379175
0.387511
0.29786
0.320332
0.320416
0.270608
0.303687
0.320023
0.323739
0.1475
0.0470199
0.0377492
-0.00350149
-0.126425
-0.099689
0.0872603
0.0182872
-0.0459639
-0.0533675
0.113738
0.0168526
0.083109
0.114623
0.0667676
0.00151921
0.211034
0.262093
0.261279
0.23862
0.146502
0.156761
0.184004
0.224735
0.250568
0.276956
0.144568
0.152176
0.153253
0.1497
0.146918
0.149524
0.15047
0.151145
0.151151
0.151376
0.151328
0.0143227
0.0270074
-0.00499966
0.000359221
0.0101559
-0.0143437
0.053842
-0.00685873
0.0442732
0.0421986
0.00691488
-0.0113299
0.00319284
0.0257747
0.172519
0.198324
0.17962
0.134787
0.237404
0.396178
0.427643
0.365491
0.201757
0.222809
0.295809
0.0925545
0.095725
0.0861647
0.105416
0.102611
0.0340058
0.0375464
0.0392348
0.0445166
0.0428602
0.0345419
0.0271899
0.0282099
0.0320379
0.0295745
0.0283655
0.133918
0.128232
0.126889
0.120302
0.120086
0.134034
0.136917
0.139698
0.144439
0.144995
0.13785
0.141472
0.143772
0.0332501
0.0285162
0.0300464
0.0277704
0.0292461
0.0227123
0.0223406
-0.238445
-0.133638
-0.0200155
-0.325406
-0.414938
-0.329203
-0.108941
-0.137252
-0.33118
0.60437
0.343734
0.185621
0.276617
0.438534
-0.0148651
0.282536
0.049862
0.754111
0.652753
0.778932
0.424104
-0.0885259
0.0783526
0.0799366
-0.060815
0.0328505
-0.0258545
-0.150042
-0.114297
-0.0841223
0.00466261
-0.127693
-0.0746522
-0.384285
-0.53034
-0.154004
-0.262926
0.054651
0.0510933
-0.494792
-0.317725
-0.393695
0.259484
0.275981
0.293264
0.268688
0.289669
0.216444
0.210727
0.229739
0.233382
0.224311
-0.943379
-0.530848
-1.75465
-1.20538
-0.74745
0.189016
0.188301
0.363676
0.282568
0.354878
0.342111
0.294072
0.259235
0.272149
0.308816
0.00434091
0.106527
0.0694475
0.100792
0.0336001
-0.0345329
0.2354
0.22813
0.263862
0.29131
0.244702
0.289912
0.143313
0.144659
0.141458
0.140046
0.135738
0.137565
0.0989036
0.0742513
0.122712
0.101927
0.0601589
0.0493843
0.0410718
0.0354096
0.0336329
0.0337303
0.0358675
0.0408083
-0.606194
-0.481032
-0.44346
-0.430304
-0.461139
-0.487958
-0.488932
-0.55833
-0.616709
-0.496186
0.297982
0.653433
0.497871
0.668958
0.413795
0.545437
-0.328036
-0.10781
-0.216042
-0.193567
-0.16144
-0.269619
-0.485892
-0.551021
0.395989
0.376105
0.202351
-0.0657121
-0.175595
0.0964061
0.174082
0.127331
0.170867
0.225178
0.22143
-0.312856
-0.230369
-0.0869961
0.218625
0.0157757
-0.0422028
-0.0245025
0.134513
0.0735827
)
;

boundaryField
{
    wall-4
    {
        type            zeroGradient;
    }
    velocity-inlet-5
    {
        type            zeroGradient;
    }
    velocity-inlet-6
    {
        type            zeroGradient;
    }
    pressure-outlet-7
    {
        type            fixedValue;
        value           uniform 0;
    }
    wall-8
    {
        type            zeroGradient;
    }
    frontAndBackPlanes
    {
        type            empty;
    }
}


// ************************************************************************* //
