/*--------------------------------*- C++ -*----------------------------------*\
  =========                 |
  \\      /  F ield         | OpenFOAM: The Open Source CFD Toolbox
   \\    /   O peration     | Website:  https://openfoam.org
    \\  /    A nd           | Version:  6
     \\/     M anipulation  |
\*---------------------------------------------------------------------------*/
FoamFile
{
    version     2.0;
    format      ascii;
    class       surfaceScalarField;
    location    "10";
    object      phi;
}
// * * * * * * * * * * * * * * * * * * * * * * * * * * * * * * * * * * * * * //

dimensions      [0 3 -1 0 0 0 0];

internalField   nonuniform List<scalar> 
1300
(
3.75095
5.62643
-6.30999
3.75095
-6.18513
5.62643
-4.43073
4.43073
-1.52548
1.52548
1.87537
1.87558
-4.93336
4.93336
-5.06114
5.06114
-2.90146
2.90146
-5.24751
5.24751
-5.06905
5.06905
4.71648
-4.71648
-5.01093
5.01093
-1.96285
1.96285
-4.98089
4.98089
3.17902
-3.17902
-5.23229
5.23229
-0.600845
0.600845
-0.552333
4.30329
3.19862
3.19862
-2.63305
2.63305
-4.85515
4.85515
6.22122
-6.22122
9.54951
-9.54951
-3.23952
-3.38866
1.36575
-8.12409
-4.81938
-4.81938
-8.44104
8.44104
-2.81461
2.81182
3.0021
-3.0021
-1.67206
1.67206
-4.37832
-0.052409
-4.37832
4.45051
-0.0197822
4.45051
-1.65349
0.128009
-1.65349
4.0812
-4.0812
1.34641
0.179067
1.34641
3.06423
-3.06423
-1.87698
3.75235
1.87397
-1.8717
6.17498
-1.87926
3.75484
-4.91292
4.91292
-5.0213
0.0879469
-5.0213
4.90261
0.0307494
4.90261
-5.29881
5.29881
-4.99769
-0.0634515
-4.99769
5.1235
-0.0623661
5.1235
3.10686
-3.10686
-2.92344
0.0219765
-2.92344
2.84751
0.0539448
2.84751
0.353583
5.27285
-5.98001
8.79183
-5.27285
0.0253345
5.20899
0.0385177
5.20899
-5.10495
0.0359004
-5.10495
5.00963
0.0594243
5.00963
4.80095
-0.0844694
4.80095
-4.83797
0.121484
-4.83797
-3.34396
-3.26572
-5.0849
0.0739602
-5.0849
-1.98811
0.0252605
-1.98811
1.93368
0.0291711
1.93368
-3.80372
3.80372
-4.80068
-0.180216
-4.80068
3.1482
0.0308207
3.1482
1.86605
1.8849
5.617
-5.617
2.43798
-5.23075
-0.00154824
-5.23075
-5.25538
-4.29413
5.25538
-0.0230875
-0.907669
0.306824
-0.907669
3.16274
0.0358767
3.16274
2.75446
0.0930497
-2.75446
0.121413
3.51792
-3.51792
2.01661
0.616439
2.01661
-5.56646
5.56646
4.95382
0.0558123
-4.95382
0.0986677
6.15774
0.0634714
6.15774
-6.20634
-0.0148735
-6.20634
3.36149
-6.75015
-3.36143
4.92667
0.084263
-4.92667
0.107296
3.0215
-0.0194047
3.0215
-2.95863
2.95863
-3.00889
0.00678755
-3.00889
-2.12017
0.448106
-2.12017
1.22579
0.446273
1.22579
-4.28695
-0.0913744
-4.28695
-4.50857
-0.29211
4.50857
-0.0580569
0.850359
-0.850359
-1.80443
0.150948
-1.80443
-4.16366
-0.123285
4.16366
-0.0824584
-4.07149
-0.00971211
-4.07149
-3.02573
0.0168471
3.02573
0.0384957
3.11586
0.0468792
-3.11586
0.0516359
-1.87204
3.75695
-1.87891
3.75288
-4.71353
-0.199386
-4.71353
5.0184
-0.105477
5.0184
5.11807
-0.137176
-5.11807
0.096767
4.86576
0.0368465
4.86576
-5.29013
-0.00868232
-5.29013
5.27187
0.0269411
5.27187
4.90391
-0.0381532
-4.90391
-0.0937744
5.17772
-0.0542106
5.17772
3.16295
-0.0560837
3.16295
-3.07238
-0.034487
-3.07238
2.96291
-2.96291
2.94725
0.0156629
-2.94725
0.0238121
-11.1272
11.1124
-0.0368422
-11.0904
5.17215
5.17215
4.23309
0.567867
4.23309
-5.02906
0.191091
-5.02906
3.34842
-6.70986
3.2763
-6.62027
3.31537
-11.4395
3.35901
-6.62473
5.20525
-5.20525
5.15166
0.0535875
-5.15166
0.0667675
-2.00788
0.0197723
-2.00788
-3.35531
-0.448413
-3.35531
4.13201
-0.328287
4.13201
-3.03892
3.03892
-3.10014
0.0612201
3.10014
0.0480612
5.2155
-0.0377866
-5.2155
-0.015243
1.11662
0.229787
-1.11662
0.208954
3.71013
-0.192217
3.71013
-3.31536
-0.202558
-3.31536
-2.03972
0.0318405
2.03972
-0.0231114
-5.81287
0.24641
-5.81287
-11.1829
0.0925241
-11.1444
-6.11382
-6.11382
2.32722
11.1191
-3.04579
-0.0265865
3.04579
-0.0242877
2.97891
0.0600124
-2.97891
0.0202742
-2.96217
-0.000742508
2.96217
-0.00353596
-2.49405
0.373887
-2.49405
-0.447723
0.447723
-0.81545
0.367727
0.81545
0.410337
1.3892
-0.538839
1.3892
1.89952
0.0341592
-1.89952
0.0950867
-3.9877
-0.0837862
-3.9877
5.08821
-0.069813
5.08821
-3.2119
-0.103456
3.2119
-0.0489544
-0.0342303
11.1466
-5.13792
0.0329694
5.13792
-11.2101
11.243
-3.20305
0.708992
3.20305
1.03004
5.29633
0.270131
-5.29633
0.267271
5.239
0.0328668
-5.239
0.0337515
-2.94251
-0.412801
-2.94251
-4.42483
-0.288702
4.42483
-0.292825
-11.4828
-0.200397
11.6832
-11.4234
6.01327
0.144478
-6.01327
11.3875
-0.436572
-0.413787
0.436572
0.0111517
1.97329
-0.584096
1.97329
3.90004
-0.189905
-3.90004
-0.0876665
-5.18963
-0.100497
5.18963
-0.101421
-2.48952
-0.452984
2.48952
-0.516229
-4.27594
4.31182
1.89904
-3.35807
-3.39208
-7.6522
1.86159
1.89536
4.29957
-7.04096
-4.39849
-6.93367
7.24237
-6.9751
-9.38233
9.29786
7.43145
-7.44116
-5.75307
5.80113
6.37081
-6.33231
1.87405
1.8783
10.3643
-10.2763
-10.8254
10.626
10.1945
-10.2579
10.7614
-10.7701
-12.3997
12.4326
-5.75056
5.77253
-6.62382
6.58934
-6.77376
6.72481
-3.32647
-3.2938
9.03854
-8.96458
11.7586
-11.7602
-9.82593
9.64571
3.38467
0.927151
3.43155
-1.88866
3.76271
-1.86618
3.76522
3.35831
-6.68478
3.35155
-6.74362
6.05964
5.699
-6.03655
-1.61565
-5.87354
5.85414
-5.85912
5.85558
8.63574
-8.68815
-1.87988
3.75818
-1.873
3.76836
-3.40543
-2.34763
3.37461
0.92496
5.56692
3.47161
-5.65119
-1.28248
-7.60728
7.41738
-7.84656
7.644
-0.467307
5.84645
-5.37914
4.38784
-1.61598
7.46242
5.6264
5.81749
5.86515
-5.59502
1.10995
-6.48909
-6.39043
-2.68113
2.83208
2.6309
-2.45183
5.88068
1.55077
5.79822
-5.45714
-1.98402
-5.54093
3.78956
2.01157
3.85078
4.00962
2.36119
4.02647
3.06363
-3.03165
-0.0319813
-3.07222
6.13585
0.726536
-5.41986
-4.4949
6.8293
3.53499
6.86005
-6.80756
-3.46878
-6.71079
-6.59125
-4.2341
-6.87996
6.80639
3.81958
6.70091
-8.0348
7.93337
6.81895
3.37552
6.75659
-6.73539
-3.52253
-6.82916
10.4954
-2.69151
-7.80385
-6.9561
-5.44365
6.92915
3.83228
7.54963
4.88298
7.58338
3.56515
6.93021
-7.39744
1.95379
-3.83985
-1.9107
-3.81604
3.72538
2.04716
3.77932
-4.14821
-2.47561
-4.1748
-4.2002
-2.57356
4.25629
2.33305
-4.30602
-3.54054
4.40947
2.31534
2.97952
-7.37802
3.64521
-6.93901
-6.30019
-2.66439
-6.23342
4.10346
2.61442
-6.71787
-2.58132
10.9406
-5.2416
9.32494
-7.31872
-4.44147
-7.33396
-6.44114
-3.38479
-6.73325
-6.31931
5.90651
-6.24885
5.92056
12.6116
-4.96711
-7.64444
-3.9305
-2.40181
3.87886
-0.447316
-3.74107
3.70909
0.0216356
3.78686
4.71401
4.26669
-3.88504
-1.97407
-3.86477
3.85569
1.99988
3.85495
6.20387
2.43187
6.18409
-6.21923
-2.46892
-6.3106
9.07538
-8.62728
2.92789
-2.89605
5.10295
2.54105
-4.91073
-2.69655
5.97961
-2.98451
-2.99509
-12.3606
10.8463
1.51432
-4.89819
-0.510348
0.0904973
-5.6022
-3.78013
5.48072
0.336774
11.1831
7.40293
-5.51628
5.76268
6.16695
6.22276
-0.167666
5.86955
-5.16055
5.32825
-2.36673
-2.96151
5.26958
-5.39287
-1.04102
-5.29666
4.25564
0.405357
1.92256
-1.61573
-2.17609
-0.505041
-2.081
1.59532
1.03558
1.82511
1.00805
1.82403
-2.84142
0.499796
2.34162
-1.83337
-1.95204
-3.59066
-0.916466
4.50712
5.37084
2.04653
-5.28318
-0.257752
2.81561
-2.78644
-0.862743
-2.72791
1.94925
-2.812
-3.33828
-1.91011
5.24839
-3.37317
-0.491599
3.31316
0.537626
-3.74381
-2.12973
3.73702
0.289445
-3.08963
6.14642
-3.05679
-5.0637
2.5517
3.58414
4.56327
-4.85894
2.48179
2.37715
-1.27479
5.9222
0.937851
5.95904
-8.95579
5.48701
7.17382
2.47189
-7.03665
0.325855
-8.62994
9.83897
-8.1301
-1.70887
5.41516
4.42381
5.79844
6.81311
-4.4097
10.2081
-0.160919
-7.96918
8.79086
-6.31897
4.49395
-10.8129
-11.3071
3.33788
-7.14867
8.63614
-1.48747
-2.417
-5.61779
9.56567
-1.0133
-8.55237
5.68761
-5.39908
-5.30304
10.7021
-8.0906
8.82558
-2.65314
-6.17244
-6.71527
-4.05484
6.81577
1.1176
-9.93203
11.8858
-3.00181
5.93927
0.817318
5.88506
3.92488
-6.02984
2.10495
4.16571
-6.81885
2.62128
-8.65112
-4.86299
9.51347
-4.65049
-7.52737
-6.73426
-0.793117
2.03918
9.84664
-6.92216
5.33071
1.59145
3.32011
0.534846
-3.33577
-0.48027
0.342607
4.43521
-4.77781
4.12193
4.21498
3.2678
1.1674
3.82948
2.02465
-3.8052
-0.369603
-4.01938
1.44582
-1.68633
-3.41104
4.85686
-3.87751
0.466463
-2.62451
-3.44909
6.0736
-4.53522
3.04729
3.09913
5.04717
-4.78836
1.33928
-2.37367
-2.4147
2.53823
-4.22456
1.8279
3.02897
4.14323
0.602693
4.81965
4.69382
-7.43407
0.49506
8.16543
-6.88296
1.68576
5.89761
-7.01648
0.282219
-5.9512
1.10965
-6.35125
-5.60822
4.07606
-7.46085
-6.73686
5.63004
0.554044
-5.57199
-1.16126
-4.15709
-2.16222
-4.61008
-2.04426
-4.20458
-6.45397
-1.25351
-5.20045
4.653
-4.6433
-2.23666
4.93612
0.984441
-7.46192
7.04814
-6.40619
5.82209
0.0399317
3.66916
4.30663
1.90481
-2.39436
4.29917
-3.82231
6.25418
-8.18117
4.35885
4.1251
-6.59402
-4.05607
4.94642
4.12896
5.39269
9.6402
-11.324
1.6838
-11.999
11.8825
0.116483
-17.836
5.83702
-8.1958
2.67102
0.256871
2.69079
0.627898
2.31696
-2.94485
-2.26815
-2.29127
-2.18449
-3.22928
5.41377
1.1096
-3.16791
2.05831
-3.44638
4.55598
0.0969941
-3.2649
5.07576
-2.75881
5.33263
-3.34939
1.98324
3.2208
5.44939
-2.22859
4.17288
-1.63183
1.75295
-3.98154
-1.47633
-2.95051
4.99767
-3.12309
3.58955
-0.219854
3.8094
-3.90181
0.917293
-0.634002
3.58098
3.70239
4.20054
-3.03313
2.7761
-4.40793
-1.20544
-3.80523
-0.77627
0.740621
-4.58804
3.84742
7.04786
-6.30723
-5.31922
9.62299
-4.30377
7.70307
-5.45798
-2.24509
-4.2621
-4.36518
3.88821
1.98133
9.6844
0.15916
-5.61714
-5.00139
-3.97135
3.27793
2.05032
-2.16259
3.67691
2.07209
-0.149536
0.604932
1.22017
1.85646
-1.25153
0.186605
1.66986
-1.42913
2.09786
0.717754
-2.13202
0.0510171
-1.35779
3.30704
0.98383
-2.01941
0.767884
1.05919
-3.42593
4.61489
-2.37913
-2.23576
5.67408
1.10792
-3.48705
4.18874
-3.78339
2.31826
-3.23472
-1.16879
-4.95218
-3.40141
-2.4038
4.46211
-3.00997
5.0565
1.12383
-4.79875
5.92258
-3.42047
1.51036
-3.04837
3.76612
-1.13551
-1.91286
2.65039
2.598
-2.82749
0.0995723
-0.177097
2.17187
-2.34897
-0.640124
-2.47349
-4.55946
4.8489
-2.1009
4.58269
2.19827
-1.92275
6.50544
1.83306
-3.7558
-3.23065
-3.72225
-1.37865
3.18462
-1.00024
-5.82892
-7.17268
5.86707
0.0919694
-8.99584
10.3404
-1.34458
-5.46085
-0.02616
5.44132
-7.55265
0.733801
-4.93137
5.40906
6.34691
6.43888
-8.66619
0.113829
-4.84661
1.50422
-6.35083
5.92803
-3.51911
6.85699
-7.67347
5.43681
-6.68903
5.14812
-1.20271
5.61087
-3.50592
2.19298
-6.24783
-5.13022
6.9834
-3.60788
7.80072
-4.09243
11.8931
-7.09424
6.92583
4.96731
-1.39276
-5.9412
-6.8319
5.43914
0.09393
5.97899
4.88048
-2.85583
4.51088
2.18929
-4.56296
-2.03527
-6.41112
1.84816
-3.31199
-1.86015
3.70832
3.18702
3.72187
1.29362
-3.2416
6.66791
-7.46103
-2.01742
-3.5908
6.74983
-1.31069
4.04289
-7.63368
-2.30837
7.65581
-3.5113
-4.14451
-2.6887
-4.04816
3.76524
-7.8134
3.69561
-4.85687
2.22249
-10.4183
-5.23943
-5.22828
-1.88647
-4.51972
-7.82661
5.94014
-1.98958
5.05856
-9.31988
5.80859
-2.56261
8.50275
-3.93731
-0.672761
4.45354
1.36855
9.87129
0.656097
-4.71217
-1.90146
4.23111
-2.32965
1.37646
-3.93195
0.299166
2.36674
3.30735
-6.62238
0.028359
-4.68381
-4.01975
8.14871
5.60324
12.6511
1.3271
9.48164
-1.33293
10.8087
4.05976
4.4701
-4.32435
6.00815
-0.476929
3.88193
-0.811066
2.79431
1.87973
1.90499
0.881453
2.23394
1.46845
3.15123
0.206378
-2.08489
4.65771
-8.62906
-0.959434
-8.0612
1.23666
5.4832
-4.24654
3.2165
-1.16618
0.886851
0.288389
-1.76756
1.47917
-2.67312
-1.9171
-0.247244
-1.46922
2.2371
1.83783
-1.98986
-0.683266
0.266853
-3.66826
2.96787
-2.8683
-0.270296
5.65228
-2.54137
0.192399
-1.031
-2.28109
-2.78613
2.73512
6.1695
0.335936
3.11272
5.18484
3.05511
0.199278
4.63172
-6.1192
-4.0194
-6.00537
-0.0773408
5.36398
2.04695
7.79968
7.01427
5.70358
-1.9301
-9.39113
7.84702
-1.83888
7.9635
-3.819
-3.9944
3.67897
2.57521
-4.23301
-0.62386
-4.61826
-6.45714
-1.74848
7.55706
-8.12282
7.45005
5.28784
-0.087381
-4.56255
-0.665726
4.19483
0.275275
11.084
-0.853713
-7.1463
8.00001
-4.62949
3.67005
1.02006
2.65685
2.49924
1.33306
-5.81324
-10.0598
-1.87861
-1.54732
-4.11436
0.392761
-2.23059
6.15892
-2.48887
3.91384
5.51115
6.398
-2.02857
-4.27867
6.33233
-2.4185
3.9795
)
;

boundaryField
{
    wall-4
    {
        type            calculated;
        value           uniform 0;
    }
    velocity-inlet-5
    {
        type            calculated;
        value           uniform -3.75095;
    }
    velocity-inlet-6
    {
        type            calculated;
        value           uniform -5.62643;
    }
    pressure-outlet-7
    {
        type            calculated;
        value           nonuniform List<scalar> 8(6.30999 6.18513 6.62818 6.75834 6.60968 6.72292 6.62473 6.67438);
    }
    wall-8
    {
        type            calculated;
        value           uniform 0;
    }
    frontAndBackPlanes
    {
        type            empty;
        value           nonuniform 0();
    }
}


// ************************************************************************* //
