/*--------------------------------*- C++ -*----------------------------------*\
  =========                 |
  \\      /  F ield         | OpenFOAM: The Open Source CFD Toolbox
   \\    /   O peration     | Website:  https://openfoam.org
    \\  /    A nd           | Version:  6
     \\/     M anipulation  |
\*---------------------------------------------------------------------------*/
FoamFile
{
    version     2.0;
    format      ascii;
    class       volVectorField;
    location    "10";
    object      U;
}
// * * * * * * * * * * * * * * * * * * * * * * * * * * * * * * * * * * * * * //

dimensions      [0 1 -1 0 0 0 0];

internalField   nonuniform List<vector> 
918
(
(0.984803 -0.00107008 0)
(0.0052794 2.96628 0)
(-0.00583856 1.67611 0)
(0.979782 0.00180083 0)
(-0.00207501 1.64777 -1.27904e-21)
(-0.00703338 2.94854 -1.9822e-18)
(0.87782 1.13723 7.4999e-19)
(0.517255 0.25505 -8.44253e-21)
(0.99984 -4.99985e-05 0)
(0.0746115 1.44334 0)
(-0.0129301 1.49567 0)
(0.863527 -0.00373696 0)
(0.0101859 2.93118 0)
(0.00171328 2.79421 0)
(-0.00276474 3.19225 1.12022e-18)
(-0.00154692 1.57493 -1.57778e-20)
(0.616128 0.115036 5.19119e-19)
(0.262419 1.58616 5.2574e-19)
(0.96837 0.0154461 0)
(0.00182673 1.5611 0)
(0.220098 0.299213 -4.57378e-19)
(1.00146 -0.00439946 0)
(0.999916 -0.00903227 0)
(0.973656 -0.00654344 0)
(0.788836 -0.020586 0)
(0.0251743 2.63297 0)
(-0.0133015 2.91154 6.85217e-19)
(-0.00834162 1.69549 0)
(-0.0103799 1.77018 0)
(-0.0127367 1.6959 0)
(0.00139739 1.80252 0)
(0.000361123 1.66349 1.01279e-21)
(0.00322222 1.57917 0)
(-0.0221554 2.98758 -6.97259e-23)
(-0.0165514 3.0055 1.54087e-18)
(0.00229677 3.00062 0)
(0.8995 -0.0052092 0)
(0.319053 0.917191 6.17065e-22)
(0.836318 1.1827 -1.09087e-18)
(0.981834 1.00709 1.00381e-18)
(0.699905 1.28983 -1.68362e-19)
(0.75512 1.23456 9.35118e-19)
(0.563289 0.311813 8.23661e-21)
(0.55628 0.20958 0)
(1.20436 0.558852 0)
(0.506371 0.333325 3.77467e-20)
(0.484305 0.251953 -3.91649e-20)
(0.919905 -0.00108205 0)
(1.00022 0.000439614 0)
(0.999962 0.000306975 0)
(1.00447 -0.00743033 0)
(1.00077 -0.000700959 0)
(1.00011 -0.000190849 0)
(0.0330452 1.57598 -5.75039e-19)
(0.0395271 1.58578 0)
(0.124369 1.47892 0)
(0.0236101 1.60274 0)
(0.0375285 1.43394 0)
(-0.00571684 1.60675 0)
(-0.0168189 1.60254 0)
(-0.0116267 1.48033 0)
(-0.0172863 1.62921 0)
(-0.0109823 1.51817 0)
(0.929914 0.00946275 0)
(0.923986 0.00331631 0)
(0.871642 -0.00459027 0)
(0.918272 0.0105172 0)
(0.841929 0.00858883 0)
(0.014003 3.00018 7.27016e-19)
(0.0112796 3.00586 0)
(0.00635973 3.00394 0)
(0.0120914 2.99702 8.13041e-24)
(0.00827062 2.95865 -1.08052e-18)
(0.012611 2.98264 0)
(0.0093451 2.90389 0)
(0.0218038 2.93144 1.49589e-24)
(0.00294876 2.82402 0)
(0.0269604 2.91781 0)
(-0.00298407 2.74285 0)
(0.302925 3.58496 0)
(-0.123526 3.66719 0)
(0.147931 3.28224 -1.0426e-18)
(0.00365907 3.0193 0)
(0.0121637 1.76246 0)
(-0.00303952 1.66296 1.55663e-20)
(-0.00150523 1.5742 -3.26213e-20)
(0.688546 0.158435 -1.77929e-19)
(0.644467 0.0565034 -1.68999e-19)
(0.653505 0.194965 -5.32611e-19)
(0.617556 0.131705 -3.55544e-19)
(0.248904 1.29279 0)
(0.237405 1.59778 -5.56911e-19)
(0.412244 1.47622 9.2883e-19)
(0.989517 0.0129772 0)
(0.950102 0.013593 0)
(1.00028 0.000928645 0)
(1.00214 0.00985348 0)
(1.00284 0.0125746 -8.72298e-19)
(0.991258 0.00787641 6.60488e-19)
(-0.000609125 1.65424 0)
(0.00617531 1.56803 0)
(-0.0100956 1.71107 0)
(-0.00529149 1.66797 0)
(6.00265e-05 1.56674 0)
(0.292459 0.315432 1.40189e-19)
(0.327885 0.290368 0)
(0.991536 -0.00613344 0)
(0.956194 -0.000595804 0)
(0.887717 0.0327898 0)
(0.858111 0.0290962 0)
(0.814112 0.0101567 0)
(1.04974 0.011464 0)
(0.821457 0.00930968 0)
(0.727159 -0.0271938 6.68018e-19)
(-0.0378732 2.86482 3.94681e-19)
(0.0369425 2.91172 0)
(0.046849 2.88837 0)
(0.00184325 2.69707 0)
(-0.00854568 2.98571 6.38607e-19)
(-0.0142273 2.89531 0)
(-0.0110512 2.99086 -2.00116e-18)
(-0.0124396 2.9292 6.85991e-19)
(-0.00728315 1.80189 0)
(-0.00163253 1.79287 0)
(0.00063531 1.67053 -4.78409e-22)
(0.000592142 1.66054 0)
(0.0012059 1.56961 0)
(0.950732 0.00259327 0)
(0.900369 0.00755647 0)
(0.883906 -0.00857103 0)
(0.951993 -0.00309023 0)
(0.898195 -0.00225567 0)
(0.47398 1.10425 -9.97799e-21)
(0.52194 1.18089 0)
(0.2121 0.822184 8.52848e-21)
(0.224808 0.662697 0)
(0.942416 1.05382 -2.94005e-19)
(1.07476 0.848252 6.0241e-19)
(0.363691 1.49003 0)
(0.540496 1.37748 0)
(0.597745 1.32564 0)
(0.212852 0.0161725 -1.48129e-19)
(0.592541 0.290304 0)
(0.583461 0.206545 1.04231e-19)
(1.04136 0.904136 0)
(1.12308 0.746131 0)
(1.15432 0.690579 -5.2727e-19)
(1.20368 0.595908 0)
(1.2557 0.416791 5.33377e-20)
(0.953663 0.00121514 0)
(0.956773 -0.00482772 0)
(0.908645 -0.00167975 0)
(0.985977 -0.00312497 0)
(0.971732 -0.000279829 0)
(0.9434 -0.000369036 0)
(1.00117 0.0029527 0)
(1.00022 0.000864645 0)
(0.99988 0.000557298 0)
(0.0250544 1.64739 3.13059e-19)
(0.0754003 1.54635 0)
(0.00155617 1.67473 5.06189e-19)
(0.00952202 1.57392 -4.31598e-19)
(0.0758786 1.62198 -4.40963e-19)
(0.0708204 1.63405 0)
(0.180394 1.53125 0)
(0.00277507 1.57444 0)
(0.0142793 1.41253 0)
(-0.0061585 1.69153 -1.31178e-21)
(0.00371307 1.62091 0)
(-0.0116171 1.68787 -6.78944e-20)
(-0.0080302 1.59836 1.28001e-19)
(-0.0105679 1.57722 0)
(-0.0201478 1.59492 0)
(-0.00754451 1.44155 0)
(-0.0143146 1.64676 0)
(-0.00639872 1.53411 0)
(0.989282 0.0180314 0)
(0.950492 0.00778637 0)
(0.974028 0.0105604 0)
(0.922532 0.00546147 0)
(0.879732 -0.00388966 0)
(0.94129 0.0069954 0)
(0.935515 0.00695816 0)
(0.876208 0.00531413 0)
(0.01091 3.06592 -6.41985e-21)
(0.0139914 3.0593 0)
(0.0128793 2.96964 0)
(0.00810822 2.87542 0)
(0.887433 3.97444 0)
(1.18022 3.36488 1.00575e-18)
(0.0814486 3.10048 0)
(-0.0171728 2.9248 0)
(0.000936982 1.78808 0)
(0.0109975 1.7627 0)
(0.00914653 1.76613 0)
(0.00366375 1.78745 3.3769e-21)
(0.0149321 1.76622 0)
(0.00812047 1.77827 0)
(-0.0023327 1.57779 5.07657e-21)
(-0.00322358 1.67689 3.87311e-20)
(0.000473037 1.66719 3.33203e-20)
(-0.00272211 1.57282 0)
(0.702723 0.119999 2.56213e-19)
(0.668644 0.04721 -2.4898e-19)
(0.214157 1.36062 0)
(0.32215 1.13991 -2.74315e-19)
(0.146751 1.4609 -7.79115e-19)
(0.19545 1.36725 7.78684e-19)
(0.905569 0.0136423 0)
(0.97218 0.0205537 0)
(0.979407 0.015476 0)
(0.933673 0.0201806 0)
(-0.00809803 1.65357 0)
(0.000889423 1.65785 0)
(0.00572457 1.553 0)
(0.463445 0.352458 3.45287e-19)
(0.405467 0.330646 -4.24017e-19)
(0.410682 0.253239 0)
(1.17103 0.0869273 -9.15322e-21)
(1.1582 0.0325362 0)
(1.07845 0.043652 0)
(0.993477 -0.00172467 0)
(0.73079 0.102537 0)
(0.770566 0.0578716 -1.08014e-18)
(0.694622 0.0397615 4.1963e-19)
(0.0120358 2.97943 4.82662e-19)
(-0.0310148 2.86476 4.95633e-20)
(0.0086865 3.05302 -1.37503e-20)
(0.0153215 3.04362 5.24012e-19)
(-0.0121277 2.99995 2.27877e-20)
(-0.0122083 2.95225 -9.25509e-23)
(-0.0151934 3.01326 -4.36976e-19)
(0.0141129 3.02668 3.06696e-19)
(0.00735525 3.03466 -4.92192e-19)
(0.971009 0.00751617 0)
(0.964629 0.00802369 0)
(0.909858 0.00643184 0)
(0.956391 0.016121 0)
(0.945899 0.0056072 0)
(0.881363 0.00996303 0)
(0.943597 -0.0033783 0)
(0.938747 -0.00584892 0)
(0.88097 -0.0122602 0)
(0.662051 1.40312 2.55007e-19)
(0.68028 1.5141 0)
(0.162229 -0.0595601 -3.09323e-20)
(0.137774 0.358063 -1.98957e-19)
(0.137374 0.52525 -3.25317e-20)
(0.228929 0.324094 7.15808e-20)
(0.433914 0.660062 9.566e-19)
(0.247152 0.251047 3.24155e-19)
(0.652487 0.22225 3.87063e-19)
(0.623765 0.264562 9.52107e-20)
(0.605742 0.165253 1.99666e-19)
(1.24318 0.45783 3.43299e-19)
(1.27179 0.250408 3.61121e-19)
(-0.00840663 1.67124 2.02061e-19)
(0.00897951 1.5776 0)
(1.02922 0.0208175 0)
(1.00665 0.01237 0)
(0.962833 -0.00577229 0)
(0.0111291 3.07362 0)
(0.0171052 2.94315 8.73681e-19)
(0.0143186 2.95562 0)
(0.0057802 2.84931 -8.67159e-19)
(0.00888933 3.08952 2.09184e-19)
(0.0120555 3.08193 0)
(0.701554 1.80882 -2.38502e-19)
(1.22136 2.61787 7.95342e-19)
(0.683943 1.98904 -1.61039e-18)
(0.023771 2.98144 -3.65012e-19)
(0.042563 3.00815 0)
(-0.0348915 2.88483 0)
(-0.00595315 1.67294 -7.46795e-21)
(-0.00193711 1.67606 -9.16825e-20)
(-0.000527094 1.58501 -5.30809e-21)
(0.272163 1.24882 8.52581e-19)
(0.354133 0.996058 -5.7875e-19)
(0.0516394 1.60151 5.2667e-19)
(0.0891936 1.5385 -6.45865e-19)
(0.127502 1.45981 7.85148e-20)
(0.00659429 3.11906 -1.1617e-18)
(0.0191392 3.11907 1.24576e-18)
(-0.00432563 2.98065 5.67846e-19)
(0.000818367 2.97584 -5.18308e-19)
(-0.017567 2.87984 -5.78355e-19)
(0.0124937 3.09876 -1.52757e-18)
(0.00520965 3.10783 1.49485e-18)
(0.406596 0.496168 0)
(0.272644 0.423884 5.69956e-19)
(0.121476 -0.164282 -2.08475e-19)
(0.423458 0.836394 9.5974e-19)
(0.375946 0.56967 -1.44822e-18)
(1.24781 0.175226 -7.51199e-20)
(1.26682 0.309653 0)
(1.24545 0.124951 1.44567e-19)
(0.00484929 1.68804 -1.66508e-21)
(0.00240274 1.67055 0)
(0.00971461 1.59776 0)
(0.305196 1.1149 -3.01509e-19)
(0.354813 0.99496 -6.82146e-19)
(0.364125 0.815243 1.21403e-18)
(1.00367 -0.0093295 0)
(1.00526 -0.00674035 1.57206e-19)
(-0.00587006 1.79993 0)
(-0.0088463 1.80402 0)
(1.00308 0.00251348 1.09229e-21)
(1.00453 0.00706113 3.27519e-19)
(0.00347898 1.78808 -4.43335e-21)
(0.000917489 1.78719 0)
(0.0438902 3.1864 1.75691e-19)
(0.374821 3.55672 0)
(1.08827 0.691282 8.80403e-20)
(1.00819 0.00523842 -2.49596e-21)
(1.00321 -0.0168739 0)
(1.00047 -0.000435889 5.62891e-22)
(0.00227295 1.79304 0)
(0.0304311 1.79817 0)
(-0.0235794 1.79184 0)
(0.00520229 1.78997 9.12134e-20)
(-0.0031048 1.79756 4.47706e-20)
(1.00332 0.00996515 1.10434e-21)
(1.04487 0.0134696 0)
(1.07438 0.025987 0)
(0.00532928 1.77009 0)
(0.00240923 1.78842 0)
(-0.00572233 1.79371 0)
(0.0220673 1.69119 -3.3707e-19)
(1.01357 -0.0143847 0)
(1.01247 -0.0190892 0)
(1.00556 -0.000942117 1.97874e-19)
(1.00291 -0.0046966 -2.39903e-19)
(1.00172 -0.00269283 0)
(-0.00534474 1.78106 0)
(-0.00391431 1.79633 0)
(-0.00313814 1.79002 0)
(-0.00580335 1.79646 0)
(-0.00556464 1.79459 0)
(-0.0065727 1.79632 0)
(1.02157 0.00991616 0)
(1.02256 0.00371243 -6.13407e-22)
(0.711492 1.24216 5.35616e-19)
(1.00127 -0.00129499 -1.98745e-19)
(1.00283 0.00295391 2.42959e-19)
(1.00106 0.0015075 0)
(1.00743 0.00704116 1.90235e-19)
(1.00813 0.00684746 -2.40422e-19)
(1.00665 0.00352441 0)
(0.00400619 1.78847 0)
(0.00379716 1.78626 1.7023e-20)
(0.00528833 1.78546 -1.33868e-20)
(1.1628 0.260468 -1.46764e-19)
(1.10599 0.0822896 0)
(0.0614822 3.09063 -5.75157e-19)
(0.0568769 2.86379 -4.43866e-20)
(0.121343 3.20717 7.16161e-19)
(0.135397 3.22057 -6.5945e-20)
(0.145675 3.26855 0)
(0.0255788 3.13975 1.38456e-19)
(0.0723659 3.16475 5.69424e-19)
(0.0714494 3.18643 -2.63727e-19)
(0.0311194 3.12791 0)
(0.704375 0.356572 0)
(0.602615 0.402367 0)
(1.08007 0.735906 -3.06688e-19)
(1.02276 0.855872 4.45532e-19)
(1.10493 0.571624 0)
(1.13515 0.55557 0)
(1.00909 0.00710315 -3.75244e-19)
(1.00803 0.00885624 4.64561e-19)
(1.0065 -0.0151411 0)
(1.00799 -0.0108849 0)
(1.01702 -0.00881536 0)
(1.01714 0.00500032 0)
(1.00551 0.00267077 0)
(1.01004 0.00944707 0)
(1.00694 0.00365009 0)
(1.00517 0.00449501 0)
(0.00345607 1.79764 0)
(-0.00458527 1.80576 0)
(0.00676883 1.79438 0)
(-0.0111004 1.7828 0)
(0.0327304 1.8017 0)
(0.0548872 1.80739 -3.2773e-19)
(0.0126301 1.80879 0)
(0.00019326 1.79629 1.58881e-19)
(0.0198306 1.80001 -1.63814e-19)
(-0.0207693 1.7962 0)
(-0.0145836 1.79706 0)
(-0.0244819 1.79233 0)
(-0.0249185 1.7979 0)
(-0.00508658 1.79543 -5.36618e-20)
(-0.00694539 1.7974 6.42771e-20)
(-0.0054973 1.797 8.43351e-20)
(-0.00850076 1.79542 0)
(-0.00335639 1.80011 -1.01403e-19)
(-0.00355777 1.79772 -5.86437e-20)
(-0.00418567 1.79681 4.2938e-20)
(-0.00574908 1.79586 -8.02401e-20)
(-0.00641432 1.79682 -9.60072e-20)
(1.01027 0.0133076 3.48567e-19)
(1.00974 0.00502251 -4.3703e-19)
(1.00456 0.0234358 -3.5931e-19)
(0.989653 0.0226095 4.55556e-19)
(1.03985 0.0162479 0)
(1.04401 0.00824859 0)
(1.06281 0.0324806 0)
(1.04455 0.00970438 0)
(1.06134 0.0102452 0)
(1.09584 0.0593959 0)
(1.07664 0.0452601 0)
(1.09847 0.0412307 0)
(0.010796 1.77269 -1.54048e-21)
(0.00376947 1.76484 0)
(0.00864327 1.76731 0)
(-0.00360671 1.79146 1.89468e-20)
(-0.00321451 1.78971 -9.20159e-22)
(-0.00967718 1.77602 1.64736e-20)
(-0.00745569 1.78523 -1.67053e-20)
(-0.00789652 1.79499 0)
(-0.00637999 1.79534 0)
(-0.00635537 1.7945 0)
(-0.00513659 1.79385 0)
(-0.00629891 1.79426 0)
(0.104443 1.60832 6.25942e-19)
(0.176715 1.52231 2.83657e-19)
(0.423504 1.72996 -2.017e-19)
(0.197871 1.73597 5.32943e-19)
(0.0405727 2.11036 1.27162e-19)
(1.00483 -0.0182779 0)
(1.01125 -0.0182758 0)
(1.00516 -0.0237166 0)
(1.01269 -0.00923395 0)
(1.00508 -0.00440686 0)
(1.00272 -0.00595096 0)
(1.0066 -0.00885877 0)
(1.00443 -0.013288 0)
(1.02434 0.00263176 3.24911e-19)
(1.02524 0.00281454 -4.27107e-19)
(1.02179 0.00417803 -3.21069e-19)
(1.01783 0.00514962 4.06429e-19)
(0.722728 1.24959 0)
(0.581013 1.28141 6.43178e-19)
(0.81324 1.15665 3.86544e-19)
(0.84622 1.15151 -5.14402e-19)
(1.15611 2.59089 -3.7311e-19)
(0.81041 0.126037 2.60098e-19)
(1.10848 0.0883049 0)
(1.16575 0.185295 1.28732e-19)
(1.15788 0.146922 6.73871e-21)
(0.973254 0.133493 0)
(0.119779 3.03652 -9.37601e-20)
(0.11064 2.90226 -6.52358e-19)
(0.0601771 2.33875 4.52459e-19)
(0.180562 0.127587 -2.03414e-19)
(0.347131 3.45433 -4.77064e-19)
(0.2002 3.34615 0)
(0.221254 3.4122 6.21435e-19)
(0.236022 3.089 -1.63595e-19)
(0.283093 3.21243 0)
(0.00685812 3.12198 3.02882e-20)
(0.0185717 3.131 -3.72885e-19)
(0.0167601 3.12664 5.4884e-19)
(0.037963 3.14024 0)
(0.0364544 3.15189 0)
(1.24343 2.56757 0)
(0.509175 0.848355 -2.12566e-19)
(0.970241 1.02192 -2.19083e-19)
(0.958875 1.03402 0)
(0.850077 0.904458 7.70353e-20)
(1.02289 0.875125 3.20878e-20)
(0.443989 0.468886 -5.05145e-19)
(0.728592 0.347192 -2.38113e-20)
(0.74073 0.304297 2.0276e-19)
(0.606768 0.429269 1.62915e-20)
(0.563766 0.431493 -6.69195e-19)
(0.700453 0.36714 0)
(0.665267 0.431006 3.38621e-19)
(0.67245 0.435733 0)
(0.656327 0.407913 0)
(0.672177 0.358675 0)
(0.722064 0.620455 9.85513e-20)
(1.15801 0.265153 9.74979e-20)
(1.16203 0.415555 0)
(1.17512 0.392247 0)
(0.796852 0.22295 3.03269e-19)
(0.774701 0.545751 -1.61485e-19)
(0.701725 0.490575 2.6262e-19)
(0.868944 0.418264 -2.27811e-19)
(1.02233 0.00537499 2.34692e-19)
(1.01433 0.00895467 -2.44293e-19)
(1.01758 0.0108074 0)
(1.01879 0.0122693 0)
(1.00946 -0.000441909 -2.0872e-19)
(1.00999 -0.00126984 2.07915e-19)
(1.02045 0.0064093 0)
(1.01972 0.00413108 0)
(1.0192 0.00802812 0)
(1.02202 0.0112306 0)
(1.02971 0.0055146 0)
(1.02327 0.0040799 0)
(-0.0027388 1.80835 0)
(0.00337616 1.80331 0)
(0.0134426 1.8007 4.07846e-20)
(0.0181542 1.71861 1.51907e-19)
(-0.000588366 1.78362 3.05134e-19)
(-0.0148515 1.76642 -5.13619e-19)
(0.00504546 1.80637 0)
(0.00390236 1.80731 -9.46636e-20)
(0.0150644 1.80219 0)
(0.0762143 2.05068 -1.82328e-19)
(0.146215 1.92667 5.4673e-19)
(-0.011229 1.82958 8.47061e-20)
(-0.0292834 1.74487 7.11054e-20)
(-0.0142055 1.78063 -5.81016e-20)
(-0.0706717 1.7386 5.76378e-20)
(0.00624546 1.85822 0)
(-0.0121411 1.88274 -5.32699e-22)
(0.00248469 1.80065 -4.50076e-20)
(0.00832452 1.79547 0)
(0.00100211 1.7849 1.92107e-19)
(0.00394602 1.79474 0)
(-0.00358792 1.79508 -1.72405e-19)
(-0.000952497 1.79496 0)
(-0.0149985 1.78655 -4.13226e-20)
(-0.000624376 1.79487 0)
(-0.00934762 1.79821 0)
(-0.0180491 1.78469 4.6501e-20)
(0.00731044 1.79297 -1.82413e-21)
(0.0193208 1.79954 1.88386e-19)
(0.0188672 1.79672 1.29969e-21)
(-0.00939834 1.78497 3.4763e-20)
(-0.00923348 1.78632 2.12462e-20)
(-0.0153312 1.7988 0)
(-0.013055 1.79914 0)
(0.0103835 1.79132 1.07091e-19)
(0.0105747 1.79761 7.21446e-20)
(0.00517656 1.7919 -1.05652e-19)
(0.0134687 1.79392 0)
(-0.0077157 1.78092 -6.54032e-20)
(-0.00526956 1.78885 2.86935e-20)
(-0.00778403 1.7899 -9.28344e-21)
(-0.00727004 1.78461 -4.3314e-20)
(-0.00571093 1.7936 -1.46818e-20)
(-0.00495528 1.79624 6.95478e-20)
(1.01621 0.00727794 -2.20543e-19)
(1.01189 0.00504787 2.32585e-19)
(1.01035 0.00316521 0)
(0.992135 0.054789 3.36009e-19)
(0.987005 0.0276269 -3.9237e-19)
(0.964143 0.0272987 4.54261e-19)
(0.988934 0.098411 -4.28032e-20)
(1.02683 0.00558675 0)
(1.03576 0.0120766 1.82783e-19)
(1.03727 0.00475772 -1.81224e-19)
(1.03178 0.0349276 -1.00375e-20)
(1.03101 0.0204509 8.83864e-20)
(1.00343 0.0388207 0)
(0.993245 0.0348114 -3.37466e-20)
(1.00564 0.0228841 0)
(1.01268 0.0175403 0)
(1.01899 0.00682595 0)
(1.01795 0.00564989 0)
(1.00755 0.0228545 7.06627e-20)
(1.01668 0.014953 -1.60868e-19)
(1.01638 0.037779 -7.07534e-20)
(1.00481 0.0359654 -8.29954e-20)
(1.00302 0.0387303 1.37205e-19)
(1.04383 0.0423393 0)
(1.04265 0.0810335 0)
(-0.00726237 1.77934 -2.15817e-20)
(-0.00601796 1.76925 -2.11123e-21)
(-0.00920164 1.77222 0)
(-0.000725657 1.78316 2.05712e-20)
(0.000306158 1.77668 3.48246e-21)
(-0.00211672 1.7819 -3.54489e-21)
(-0.00385509 1.79716 5.15662e-20)
(-0.0069427 1.79341 -3.28717e-21)
(-0.00604906 1.79294 1.53785e-20)
(-0.0041485 1.79406 -2.76042e-20)
(-0.00326241 1.79436 3.22344e-20)
(-0.00949854 1.78836 2.27094e-23)
(-0.012385 1.77592 2.75863e-20)
(-0.0123647 1.56136 -2.99348e-19)
(-0.0851375 1.749 -1.77859e-19)
(0.571077 1.29161 -6.16876e-19)
(0.32781 1.40804 -2.71961e-19)
(0.425667 1.37887 0)
(0.458488 1.75316 2.21843e-19)
(0.521319 1.61163 3.07473e-19)
(0.271144 1.73386 7.00967e-20)
(0.264382 1.82366 -6.32887e-19)
(0.311712 1.89622 5.92795e-19)
(0.396313 1.71923 0)
(0.348085 1.70896 -4.58008e-19)
(0.08715 1.79101 8.81156e-19)
(0.157295 1.7657 -6.15985e-20)
(0.0938105 1.77925 -1.21957e-18)
(0.89984 2.32183 -5.91546e-20)
(0.711246 1.93742 0)
(1.01808 -0.0183779 7.90403e-21)
(1.00495 -0.0161341 -6.32645e-21)
(1.00414 -0.00946238 -1.10741e-19)
(1.02531 -0.00859664 1.1335e-19)
(1.02798 -0.0123672 0)
(0.713407 1.01546 0)
(0.79048 0.974068 0)
(0.750368 1.08416 0)
(0.723502 1.04492 0)
(1.17153 2.64685 -1.13582e-20)
(1.01926 2.32709 0)
(0.996754 2.55815 -7.3897e-21)
(0.593854 2.6851 0)
(0.890913 2.74477 2.21176e-19)
(0.94833 2.71846 -1.43813e-19)
(0.827932 0.140976 0)
(0.809433 0.152105 7.54183e-20)
(0.881321 0.125765 3.77062e-19)
(0.838618 0.110166 -1.5606e-19)
(0.848737 0.0781069 -4.48215e-19)
(1.00252 0.206469 -1.85111e-19)
(0.914438 0.260731 -1.28697e-20)
(0.898162 0.276548 3.31443e-19)
(0.950865 0.171881 2.27768e-19)
(0.903604 0.165134 -4.61761e-19)
(0.889556 0.163971 6.15214e-20)
(0.942665 0.233123 -1.07874e-19)
(0.905016 0.177514 0)
(0.97238 0.154807 2.1768e-19)
(0.994514 0.171965 0)
(0.991032 0.172868 0)
(1.04084 0.104746 5.43087e-20)
(1.00791 0.159641 -1.17925e-20)
(0.998947 0.220792 -3.23171e-20)
(1.04936 0.195219 0)
(1.00565 0.0265275 1.67111e-19)
(1.00277 0.0305235 1.94987e-19)
(1.0078 0.030373 -1.62885e-19)
(1.01273 0.0369079 -1.33095e-19)
(1.00399 0.0522181 -2.35567e-19)
(0.941264 0.125242 0)
(0.982428 0.0908186 0)
(0.95965 0.0390578 -1.63961e-19)
(0.922381 0.055195 7.17056e-20)
(1.01416 0.0895705 1.89664e-19)
(1.00355 0.108571 -1.77152e-19)
(1.01459 0.149496 1.68014e-19)
(1.01492 0.138213 0)
(1.01842 0.0801338 0)
(1.00696 0.0738712 -7.41274e-20)
(1.01645 0.0736107 -1.48206e-19)
(0.876725 1.20218 -1.4388e-19)
(0.845925 1.40503 1.77585e-19)
(1.15278 2.73442 3.37344e-20)
(1.18556 3.11137 -6.19928e-20)
(1.2407 2.73014 4.05771e-19)
(1.28135 2.69554 -2.38546e-19)
(1.25633 2.29831 -3.15151e-20)
(1.176 3.01536 1.64456e-19)
(1.19506 2.97684 -1.51304e-19)
(1.1665 3.26219 -2.28263e-19)
(1.38558 2.97124 2.85154e-19)
(1.39774 2.90522 0)
(0.505337 0.878352 -1.23421e-20)
(0.247517 1.30881 2.55762e-19)
(0.486942 0.543195 3.25982e-19)
(0.341672 0.33738 3.84112e-19)
(0.563861 0.443029 3.71123e-19)
(0.535804 0.503592 -5.94043e-19)
(0.532658 0.500516 4.92605e-19)
(0.521624 0.474361 -1.96529e-19)
(0.512876 0.417564 4.51516e-19)
(0.788983 0.253221 -1.66492e-19)
(0.761479 0.285466 0)
(0.767034 0.259891 1.24505e-20)
(0.667202 0.523584 1.73459e-19)
(0.644576 0.482844 -6.38869e-19)
(0.604443 0.504504 2.17586e-20)
(0.625421 0.457078 0)
(0.652211 0.739879 1.21576e-19)
(0.766998 0.727891 3.66628e-20)
(0.713799 0.801849 -5.08626e-20)
(0.801342 0.761492 -3.14154e-21)
(0.894215 0.814012 1.90263e-20)
(0.901756 0.823219 -1.94918e-20)
(0.782655 0.634346 -1.71408e-19)
(0.855383 0.716354 2.93217e-21)
(0.930374 0.706061 0)
(0.934093 0.684364 1.07123e-20)
(0.950828 0.299966 4.54333e-20)
(1.08124 0.266404 -2.24481e-20)
(0.991678 0.227488 7.58143e-20)
(0.928131 0.339502 -1.08247e-19)
(0.959013 0.430955 0)
(1.04285 0.391151 0)
(0.804362 0.37006 -1.7177e-21)
(0.84501 0.272087 0)
(0.840214 0.255982 1.75335e-19)
(0.854817 0.272205 4.72926e-21)
(0.871688 0.423904 6.23894e-19)
(0.827373 0.492273 1.49496e-19)
(0.824738 0.441185 -2.16405e-19)
(0.756991 0.427063 2.31512e-19)
(0.742681 0.43522 1.61571e-19)
(0.713708 0.437263 -1.58852e-19)
(1.02147 0.017011 1.84544e-19)
(1.02907 0.0047922 0)
(1.02656 0.00457136 1.25142e-19)
(1.01565 0.0104684 -2.79391e-19)
(1.03007 0.00706339 1.31774e-19)
(1.02801 0.00678762 -2.78202e-19)
(1.02284 0.00456858 0)
(1.02099 0.00481069 -5.66944e-20)
(1.02871 0.0042432 1.43093e-19)
(1.02406 0.00688917 -7.55699e-20)
(1.0228 0.00778877 5.4932e-20)
(-0.015527 1.80058 0)
(-0.00922879 1.79723 0)
(0.00588932 1.80935 0)
(-0.00853547 1.8034 0)
(-0.00118141 1.80695 5.49512e-21)
(0.000847575 1.80604 -2.61457e-21)
(-0.00755644 1.80373 -3.16735e-20)
(-0.00852274 1.80687 -3.84971e-20)
(0.0140907 1.80297 -6.29651e-20)
(0.00987448 1.80295 4.76383e-20)
(0.00905376 1.81172 -1.3956e-20)
(0.00920005 1.8197 4.48995e-21)
(0.00926375 1.81228 7.58339e-22)
(0.00733468 1.80885 -6.51961e-21)
(0.000696704 1.78602 -2.13354e-19)
(0.0104572 1.79089 0)
(0.0117789 1.78195 1.12719e-19)
(0.0137567 1.79703 7.16313e-20)
(0.044362 1.83956 -8.40164e-20)
(0.0907058 1.80634 0)
(0.0928241 1.8192 -6.06197e-19)
(0.129172 1.87215 4.18912e-19)
(0.0488216 1.81036 -2.17591e-19)
(0.0242747 1.79111 1.22388e-19)
(0.0129645 1.78929 0)
(0.00571195 1.79028 -1.42795e-19)
(-0.00249165 1.78944 -1.77048e-19)
(-0.000446058 1.79279 0)
(0.0103722 1.79756 -4.90838e-21)
(0.00676434 1.79883 7.0383e-20)
(-0.0185402 1.7867 6.24466e-21)
(-0.0176209 1.78777 -1.09498e-19)
(-0.014776 1.77956 2.96447e-20)
(-0.0149605 1.7722 4.11721e-20)
(-0.0144428 1.78359 0)
(-0.0108125 1.77995 0)
(-0.00663251 1.79475 2.88912e-20)
(-0.00565781 1.78213 -9.45689e-21)
(-0.00987045 1.78058 0)
(-0.0115167 1.7982 2.21087e-20)
(-0.00906299 1.79695 -4.35467e-20)
(1.0183 0.0171733 0)
(1.0195 0.0175583 -1.70516e-20)
(1.01618 0.0123281 -1.25665e-19)
(1.02047 0.0202368 0)
(1.02031 0.0255041 0)
(1.01944 0.00410587 -6.53704e-21)
(1.01981 0.00468887 2.12405e-19)
(1.01753 0.00623053 2.58185e-19)
(1.01809 0.00700426 0)
(1.01775 0.00664511 0)
(1.01728 0.0103699 1.30203e-19)
(1.01681 0.00842623 0)
(1.01899 0.00911694 0)
(-0.0131645 1.78165 0)
(-0.0125307 1.77304 2.52248e-21)
(-0.0121054 1.77337 1.38951e-20)
(-0.0077783 1.78181 0)
(-0.0112421 1.77858 2.04483e-20)
(-0.00864332 1.78531 -9.02753e-21)
(-0.00580079 1.78601 0)
(0.0500823 2.33957 0)
(-0.190603 1.82553 4.14304e-19)
(-0.103107 2.06597 0)
(-0.0547414 1.63013 -7.35923e-19)
(0.150074 1.23784 0)
(0.0307307 1.48649 3.71757e-19)
(1.05821 2.84691 3.71323e-21)
(0.929306 2.49916 6.9825e-20)
(0.876987 2.29339 -6.46416e-19)
(0.767173 2.06773 2.00657e-19)
(0.720953 2.59965 0)
(0.834113 2.63037 0)
(0.877928 2.25733 0)
(0.859179 2.06053 -6.20768e-19)
(0.289546 2.6067 -1.97477e-19)
(0.521356 2.65572 -4.42543e-20)
(0.546964 2.65134 3.38628e-20)
(0.547582 1.7502 0)
(0.66309 1.88164 0)
(0.630351 1.7172 -3.30101e-19)
(0.45621 2.41485 0)
(0.720117 1.02945 0)
(0.533512 0.961134 -7.21867e-20)
(0.545236 0.955361 -3.61088e-21)
(0.677042 1.0703 0)
(0.538487 1.16072 1.19845e-19)
(0.748793 0.876604 2.60064e-20)
(0.795143 1.00059 0)
(0.755236 0.940834 -9.29104e-20)
(0.666818 1.04464 0)
(0.619053 0.946707 0)
(1.18478 2.81312 5.23422e-20)
(1.1701 2.84596 1.19113e-19)
(1.12493 2.36183 -2.77548e-19)
(1.10887 2.46528 1.31997e-19)
(1.15333 2.83101 0)
(1.09295 2.84814 -1.71695e-19)
(1.02971 2.52111 -3.7488e-20)
(0.870899 2.21359 -1.38101e-20)
(0.797888 1.8176 0)
(0.774704 1.08167 1.25172e-19)
(0.75953 1.03015 0)
(0.852053 0.191875 0)
(0.825781 0.168069 0)
(0.786567 0.190429 0)
(0.850962 0.202993 -2.78104e-19)
(0.811078 0.211335 1.72957e-19)
(0.923162 0.0540985 -1.4267e-19)
(0.915026 0.096799 0)
(0.883538 0.109461 6.94533e-20)
(0.8824 0.0630996 2.69682e-19)
(0.892416 0.0529581 -1.67544e-19)
(1.08652 3.35239 -9.09965e-19)
(1.15179 3.28035 0)
(1.10902 3.44116 -2.01688e-18)
(0.652632 3.59003 1.69542e-18)
(1.0185 3.18941 4.33927e-19)
(0.504533 0.879957 2.16727e-19)
(0.46655 0.934166 0)
(0.376086 0.558218 -7.43959e-20)
(0.386761 0.702152 3.44396e-19)
(0.495977 0.525303 -1.04611e-19)
(0.491282 0.542572 1.16219e-19)
(0.601714 0.514256 2.37689e-19)
(0.627697 0.552059 0)
(0.595645 0.60805 0)
(0.542234 0.547313 0)
(0.926894 0.564958 -5.8877e-20)
(0.857949 0.525883 -1.4292e-19)
(0.891104 0.561508 3.75544e-20)
(0.903376 0.475234 -1.0785e-19)
(0.983978 0.463783 0)
(0.974316 0.555211 3.30984e-21)
(0.780155 0.383515 -3.54977e-19)
(0.792917 0.362292 -4.1256e-19)
(0.757535 0.40671 2.79052e-19)
(0.752897 0.36792 -3.24986e-19)
(0.829335 0.293407 -2.22052e-19)
(0.800426 0.302113 2.78582e-19)
(1.02787 0.00896048 -1.33531e-19)
(1.02649 0.0102785 2.76094e-19)
(1.02268 0.0181064 1.73791e-19)
(1.0246 0.0197279 -2.04226e-19)
(1.01532 0.022147 0)
(1.02042 0.00573846 -3.38735e-19)
(0.0117821 1.7957 2.59195e-20)
(0.00737024 1.79503 0)
(0.00795566 1.78802 2.26168e-19)
(0.0117719 1.79518 -2.01486e-19)
(-0.00472347 1.80017 5.64021e-20)
(-0.00306565 1.79761 0)
(-0.0100412 1.78116 0)
(-0.0100215 1.77852 -1.15899e-20)
(-0.0119009 1.7772 9.93712e-21)
(-0.0109575 1.77783 1.91583e-21)
(-0.0115647 1.78133 -2.03311e-20)
(-0.011011 1.78233 1.24065e-20)
(0.542797 1.95399 1.08429e-18)
(0.254285 1.97681 -1.17508e-18)
(0.0137281 1.59094 6.96975e-19)
(-0.00208419 2.11286 -4.53786e-20)
(0.633314 1.00352 0)
(0.295902 1.14649 6.42637e-19)
(0.421003 1.05724 -6.24822e-19)
(0.172901 1.10087 -6.8165e-19)
(0.478299 1.13437 0)
(0.643923 0.964306 0)
(0.211014 2.54429 2.94225e-19)
(0.355174 2.18886 1.36953e-18)
(0.4338 2.3332 -8.66588e-19)
(0.377513 2.10325 -1.83913e-19)
(0.161743 2.30526 2.70505e-19)
(0.271595 2.00445 -7.20406e-19)
(0.916708 2.50792 3.93175e-19)
(0.922833 2.46454 0)
(0.829911 2.24487 2.20668e-19)
(1.05449 2.8433 0)
(1.07481 2.83622 0)
(0.567973 2.35113 3.03623e-19)
(1.12212 3.13303 3.92058e-19)
(1.0034 3.03059 -4.64709e-19)
(0.319695 0.987215 0)
(0.322697 0.867153 -1.27771e-19)
(0.51141 0.804736 -8.44984e-20)
(0.31589 2.18698 0)
(0.409756 2.81693 -3.07122e-19)
(0.402214 2.52397 0)
(0.67661 0.670285 -2.50479e-19)
(0.726191 0.666185 3.34992e-19)
(0.72608 0.617133 -3.20302e-19)
(0.624621 0.626315 -3.85128e-20)
(0.67243 0.587547 -1.62953e-19)
(0.958228 2.80548 -2.95874e-19)
(1.0342 2.78857 2.16354e-19)
(0.497196 2.18513 4.82585e-22)
(0.609244 1.7799 -5.21589e-20)
(0.734984 1.87255 -6.1313e-20)
(0.957697 2.46618 -1.09352e-19)
(0.996906 2.37938 -4.5195e-20)
(0.560396 1.80808 2.80909e-21)
(0.500292 1.38419 1.69654e-20)
)
;

boundaryField
{
    wall-4
    {
        type            noSlip;
    }
    velocity-inlet-5
    {
        type            fixedValue;
        value           uniform (1 0 0);
    }
    velocity-inlet-6
    {
        type            fixedValue;
        value           uniform (0 3 0);
    }
    pressure-outlet-7
    {
        type            zeroGradient;
    }
    wall-8
    {
        type            noSlip;
    }
    frontAndBackPlanes
    {
        type            empty;
    }
}


// ************************************************************************* //
