/*--------------------------------*- C++ -*----------------------------------*\
  =========                 |
  \\      /  F ield         | OpenFOAM: The Open Source CFD Toolbox
   \\    /   O peration     | Website:  https://openfoam.org
    \\  /    A nd           | Version:  6
     \\/     M anipulation  |
\*---------------------------------------------------------------------------*/
FoamFile
{
    version     2.0;
    format      ascii;
    class       volScalarField;
    location    "9";
    object      p;
}
// * * * * * * * * * * * * * * * * * * * * * * * * * * * * * * * * * * * * * //

dimensions      [0 2 -2 0 0 0 0];

internalField   nonuniform List<scalar> 
918
(
0.208486
1.00488
0.00451624
0.209429
0.00115248
0.973472
-0.821634
0.418063
0.189456
-0.133193
0.0290128
0.180793
0.83105
0.598381
-1.42621
0.0156069
0.362217
-0.665279
0.184993
0.00913915
0.504002
0.196494
0.199038
0.19069
0.239397
0.574391
0.70965
-0.00279387
-0.00354546
-0.0023809
0.000300478
0.00064252
0.0121263
0.856595
0.908576
0.931579
0.158485
0.0497824
-0.693556
-0.762502
-0.720775
-0.82846
0.40158
0.403935
-0.512505
0.415572
0.426175
0.181097
0.189329
0.189723
0.191574
0.189553
0.191387
0.293292
-0.131853
-0.202276
-0.0837102
-0.0610296
0.0942644
0.0284537
0.019193
0.0271817
0.0282555
0.120478
0.177624
0.175995
0.183691
0.197871
0.945068
0.918516
0.944412
0.856559
0.873612
0.808066
0.781703
0.618771
0.642038
0.582668
0.570507
-1.88308
-2.82578
-0.844077
-0.570623
0.000477767
0.0222117
0.0332926
0.341866
0.344282
0.356333
0.366822
0.773358
-0.595722
-0.753771
0.186225
0.184577
0.195976
0.197667
0.191708
0.19294
0.0155038
0.0168316
-0.000289633
0.00945871
0.0075294
0.47758
0.47153
0.191056
0.185279
0.205393
0.227913
0.212415
-0.0450705
0.258951
0.29223
0.400101
0.566094
0.560671
0.57
0.684912
0.649927
0.741771
0.763165
0.0053024
0.000251194
0.0201826
0.0151591
0.0180229
0.159152
0.15193
0.169617
0.162068
0.164371
0.00773723
-0.13835
0.0755358
-0.00517637
-0.61516
-0.673041
-0.645648
-0.68681
-0.798561
0.379629
0.388569
0.391411
-0.524144
-0.428856
-0.587648
-0.394344
-0.45169
0.163762
0.173106
0.167528
0.18002
0.181362
0.179601
0.192882
0.190373
0.192019
0.324045
0.399009
0.250303
0.227522
-0.409041
-0.252152
-0.387937
-0.0230546
-0.0162861
0.102245
0.108991
0.0840877
0.0724841
-0.00410286
0.0110007
0.00192794
0.0291444
0.0355193
0.108233
0.0995408
0.129819
0.134845
0.170594
0.168593
0.17269
0.16816
0.734171
0.756214
0.762536
0.738932
-3.79603
-6.42041
-0.227457
-0.0669147
0.00266322
0.00191647
0.00130335
0.00210014
0.0034961
0.00244722
0.0464721
0.0452797
0.0386772
0.0434434
0.327431
0.326151
0.78741
0.849616
0.698846
0.679168
0.173989
0.177179
0.183002
0.176197
0.0290181
0.0214757
0.0250552
0.428467
0.451452
0.44778
-0.0910152
-0.173866
0.00502663
0.0286755
0.313714
0.29403
0.313756
0.465144
0.506142
0.777511
0.801619
0.786784
0.799313
0.849858
0.872342
0.837753
0.139943
0.14554
0.143311
0.177543
0.171904
0.172615
0.166974
0.169616
0.169897
-0.252354
-0.635466
-0.330997
-0.343021
-0.121145
-0.222196
0.509156
0.655471
0.365787
0.380593
0.384888
-0.326594
-0.387378
0.198663
0.177193
0.0587008
0.0875282
0.0735429
0.711113
0.666965
0.717794
0.691659
0.655182
0.682914
-0.579327
-2.33989
-1.34225
0.337609
0.132228
0.228388
0.0675826
0.05312
0.0617259
0.831594
0.870917
0.436212
0.581158
0.542259
0.534807
0.563322
0.623652
0.553305
0.589505
0.623057
0.599677
0.19886
-0.218155
0.00259746
0.739952
0.806919
-0.196436
-0.277825
-0.30692
0.11954
0.151366
0.137514
0.84477
0.818727
0.866969
0.187621
0.189002
0.0103843
0.0145501
0.191745
0.190441
0.00761853
0.0109155
0.233128
-1.19984
-0.216125
0.186889
0.169963
0.188478
-0.0633292
0.279349
0.029761
0.0983908
0.0641935
0.175609
0.129817
0.0903291
0.0049432
0.0268334
0.0198654
-0.326969
0.181088
0.177096
0.186778
0.188761
0.188395
0.00668789
0.00993317
0.00651653
0.015776
0.0104873
0.0120135
0.159608
0.166621
-0.488537
0.188191
0.18957
0.189619
0.187169
0.188476
0.188719
0.0207812
0.0118472
0.0203503
-0.0760498
0.036638
0.448202
0.554155
0.367496
0.193594
-0.0878543
0.370203
0.431854
0.340904
0.496658
0.366825
0.398928
-0.159493
-0.266918
-0.114378
-0.177311
0.179556
0.179544
0.168139
0.162469
0.177419
0.177348
0.184181
0.182445
0.186579
0.186246
-0.0317557
-0.0448189
-0.0836943
-0.157168
0.30646
0.386959
0.231032
0.228908
0.143654
0.0313825
0.0280896
0.0300913
0.0223598
0.071105
0.0697838
0.0804515
0.080039
0.0546004
0.0526566
0.0695705
0.0660578
0.073121
0.172079
0.172115
0.173876
0.180843
0.134371
0.139799
0.108214
0.127881
0.111248
0.0629203
0.087931
0.0681391
0.0101623
0.00962282
0.00707373
0.0330809
0.0358802
0.0169256
0.0126789
0.0156342
0.0117339
0.0112213
0.0233588
0.0265341
-0.297516
-0.442856
0.763781
0.618177
0.357589
0.175148
0.180816
0.178301
0.177893
0.182711
0.185982
0.18393
0.181823
0.168222
0.170999
0.167372
0.165341
-0.481752
-0.531383
-0.389483
-0.450086
-0.101847
0.297934
0.0423283
-0.0209824
-0.0379381
0.176449
0.352202
0.33688
0.487884
0.486571
-0.638245
-0.2494
-0.572545
-0.0632715
-0.0490544
0.47086
0.518684
0.538914
0.492435
0.441035
-0.277149
0.229496
-0.376172
-0.344612
-0.170364
-0.244184
0.429324
0.350977
0.359618
0.389175
0.406294
0.35766
0.342022
0.334024
0.374693
0.378287
0.180214
-0.0458534
-0.103071
-0.148853
0.333688
0.208711
0.26853
0.176443
0.171663
0.17551
0.174839
0.160936
0.16711
0.16362
0.166607
0.168892
0.176855
0.173116
0.172272
0.177711
-0.025028
-0.0145909
-0.0546331
-0.236791
-0.196295
-0.27517
-0.118987
0.134208
0.109661
0.350435
0.398714
0.0726395
-0.121746
-0.0767133
-0.0275567
0.165224
0.159005
0.116077
0.157906
0.182325
0.151702
0.202492
0.186179
0.050171
0.0629277
0.037884
0.0394874
0.102723
0.117084
0.122666
0.0557112
0.0541325
0.0346582
0.0304068
0.083908
0.0522565
0.0694729
0.0730013
0.0280179
0.0336861
0.0364186
0.0492231
0.0459055
0.0501923
0.167676
0.169109
0.168586
0.184814
0.193443
0.206864
0.178178
0.152876
0.143775
0.145024
0.130165
0.137294
0.138538
0.146044
0.159221
0.165999
0.164793
0.166816
0.152483
0.153554
0.141824
0.146325
0.125662
0.105014
0.0926974
0.0202772
0.0154028
0.0178387
0.0161643
0.0132995
0.0122881
0.0490052
0.0400167
0.0445823
0.0403783
0.0456357
0.0213634
0.0230619
-0.173412
-0.0457455
-0.459547
-0.390747
-0.500682
0.731681
0.780777
0.606947
0.509011
0.55077
0.660558
0.69853
0.424773
0.523985
0.514314
0.279281
0.79095
0.177017
0.178307
0.17411
0.172757
0.176662
-0.426588
-0.37893
-0.266623
-0.221269
-0.0826934
0.00906276
-0.498218
-0.0261844
0.0915848
-0.038109
0.289157
0.304798
0.25365
0.279571
0.275828
0.108612
0.174388
0.230582
0.177546
0.233676
0.257442
0.212278
0.248703
0.183514
0.140522
0.140871
0.0888338
0.11698
0.0948712
0.0640798
0.165476
0.148166
0.157012
0.148479
0.1682
0.195908
0.191261
0.208262
0.229551
0.15664
0.118321
0.130368
0.151066
0.112344
0.123687
0.140225
-0.480658
-0.532054
-0.208616
-0.397064
-0.258928
-0.239143
-0.245455
-0.402577
-0.0821766
-0.648318
-0.56302
-1.22401
0.187346
0.513676
0.387451
0.387777
0.406119
0.390707
0.397348
0.417384
0.425916
0.325541
0.345278
0.345821
0.303079
0.333006
0.361787
0.359697
0.178456
0.05159
0.0420521
-0.00489211
-0.119541
-0.0948577
0.109844
0.0346132
-0.0292388
-0.0426174
0.131935
0.0345812
0.103631
0.131702
0.087402
0.0214928
0.232724
0.289055
0.284692
0.264537
0.169504
0.181199
0.212809
0.256465
0.280079
0.306503
0.165425
0.171388
0.173326
0.169412
0.166596
0.169455
0.171702
0.172042
0.169857
0.169441
0.171491
0.0197512
0.031451
-0.00455078
0.00256203
0.0218405
-0.00225239
0.0624364
0.00967243
0.0478764
0.0473282
0.0172553
-0.0060513
0.0085144
0.0340714
0.180093
0.206932
0.192548
0.1413
0.250311
0.384246
0.429467
0.368681
0.215561
0.237156
0.295374
0.0929453
0.0919756
0.085344
0.101613
0.102566
0.0410291
0.0412839
0.0423816
0.0467918
0.0482598
0.0367785
0.0283083
0.0283872
0.0325726
0.0316275
0.0314393
0.156492
0.149563
0.147621
0.140703
0.140426
0.155312
0.156888
0.161198
0.165844
0.166539
0.158739
0.163089
0.165244
0.0361221
0.0303569
0.0331678
0.0291085
0.0305797
0.0242311
0.0240649
0.036489
0.0321718
0.149383
-0.122543
-0.304687
-0.18399
0.00404146
0.0937993
-0.20106
0.631194
0.407884
0.200133
0.317822
0.5323
0.238268
0.512988
0.341392
0.74066
0.702102
0.772133
0.599805
-0.175833
0.0866706
0.0954949
-0.206957
-0.0023234
-0.0295573
-0.166034
-0.114478
-0.119079
-0.00393321
-0.262718
-0.349828
-0.673403
-0.617798
-0.238771
-0.282732
-0.14372
-0.235968
-0.606799
-0.639816
-0.582152
0.283715
0.299815
0.318475
0.293084
0.315631
0.235682
0.230852
0.250446
0.254634
0.246972
-0.881812
-0.478575
-1.68565
-1.13711
-0.621685
0.259111
0.243854
0.432189
0.332333
0.404117
0.388416
0.33622
0.298693
0.314717
0.351705
0.016591
0.12928
0.0906829
0.123752
0.0554272
-0.0141194
0.265919
0.252992
0.294826
0.319971
0.272617
0.31504
0.163749
0.164064
0.161152
0.159983
0.156802
0.157096
0.104433
0.0771028
0.128424
0.108774
0.0707139
0.0538521
0.0430666
0.0395669
0.0371961
0.0362638
0.0378767
0.0422336
-0.419216
-0.205088
-0.217497
-0.150206
-0.426395
-0.358058
-0.396588
-0.365863
-0.412491
-0.470088
0.410315
0.669192
0.566651
0.675087
0.462023
0.546403
-0.300278
-0.384416
-0.428298
-0.259647
-0.120598
-0.137683
-0.418657
-0.432503
0.461348
0.459996
0.309252
0.0784131
-0.0398286
0.192315
0.205055
0.156343
0.197112
0.26022
0.255529
-0.257402
-0.235817
0.00316462
0.277275
-0.126662
-0.0904664
-0.114475
0.122517
0.0736622
)
;

boundaryField
{
    wall-4
    {
        type            zeroGradient;
    }
    velocity-inlet-5
    {
        type            zeroGradient;
    }
    velocity-inlet-6
    {
        type            zeroGradient;
    }
    pressure-outlet-7
    {
        type            fixedValue;
        value           uniform 0;
    }
    wall-8
    {
        type            zeroGradient;
    }
    frontAndBackPlanes
    {
        type            empty;
    }
}


// ************************************************************************* //
