/*--------------------------------*- C++ -*----------------------------------*\
  =========                 |
  \\      /  F ield         | OpenFOAM: The Open Source CFD Toolbox
   \\    /   O peration     | Website:  https://openfoam.org
    \\  /    A nd           | Version:  6
     \\/     M anipulation  |
\*---------------------------------------------------------------------------*/
FoamFile
{
    version     2.0;
    format      ascii;
    class       surfaceScalarField;
    location    "9";
    object      phi;
}
// * * * * * * * * * * * * * * * * * * * * * * * * * * * * * * * * * * * * * //

dimensions      [0 3 -1 0 0 0 0];

internalField   nonuniform List<scalar> 
1300
(
3.75095
5.62643
-6.34582
3.75095
-6.21315
5.62643
-4.52373
4.52373
-1.54464
1.54464
1.87567
1.87528
-5.04919
5.04919
-5.15896
5.15896
-2.92286
2.92286
-5.24725
5.24725
-5.06853
5.06853
4.70446
-4.70446
-5.05488
5.05488
-1.99397
1.99397
-5.33713
5.33713
3.18159
-3.18159
-5.28037
5.28037
-0.633915
0.633915
-0.550501
4.30145
3.20045
3.20045
-2.67725
2.67725
-4.85547
4.85547
6.22063
-6.22063
9.59866
-9.59866
-3.25284
-3.37573
1.35887
-8.11792
-4.85428
-4.85428
-8.44114
8.44114
-2.81471
2.81172
3.02417
-3.02417
-1.57497
1.57497
-4.41963
-0.1041
-4.41963
4.57761
-0.0538772
4.57761
-1.68335
0.138709
-1.68335
4.07318
-4.07318
1.36146
0.183177
1.36146
3.06109
-3.06109
-1.8761
3.75177
1.87486
-1.86979
6.17125
-1.88116
3.75644
-4.85419
4.85419
-5.16194
0.112755
-5.16194
4.98406
0.0651232
4.98406
-5.28369
5.28369
-5.11278
-0.0461793
-5.11278
5.20937
-0.0504085
5.20937
3.12586
-3.12586
-2.95316
0.0303032
-2.95316
2.86772
0.0551371
2.86772
0.35393
5.2725
-5.98036
8.79208
-5.2725
0.0252516
5.20916
0.0380874
5.20916
-5.10557
0.0370345
-5.10557
5.01021
0.0583226
5.01021
4.79129
-0.0868263
4.79129
-4.82626
0.121798
-4.82626
-3.33178
-3.27015
-5.1264
0.0715192
-5.1264
-2.02189
0.0279236
-2.02189
1.97573
0.0182352
1.97573
-3.8193
3.8193
-5.22112
-0.116011
-5.22112
3.15639
0.0252029
3.15639
1.86599
1.88496
5.61694
-5.61694
2.43535
-5.27631
-0.00406316
-5.27631
-5.30128
-4.29737
5.30128
-0.0209098
-0.93235
0.298435
-0.93235
3.16496
0.0354943
3.16496
2.77873
0.088989
-2.77873
0.101488
3.54304
-3.54304
2.06531
0.611939
2.06531
-5.56762
5.56762
4.95362
0.0565913
-4.95362
0.0981491
6.15707
0.0635651
6.15707
-6.20577
-0.0148627
-6.20577
3.3535
-6.72923
-3.32675
4.96365
0.0912359
-4.96365
0.10937
3.04755
-0.023373
3.04755
-2.98375
2.98375
-3.02963
0.00546001
-3.02963
-2.13272
0.557752
-2.13272
0.98782
0.587152
0.98782
-4.28325
-0.13638
-4.28325
-4.81687
-0.40425
4.81687
-0.239265
1.1748
-1.1748
-1.82167
0.138318
-1.82167
-4.13424
-0.149007
4.13424
-0.0610655
-4.07262
-0.000554301
-4.07262
-3.02965
2.12649e-05
3.02965
0.0314392
3.11603
0.0489263
-3.11603
0.054939
-1.87292
3.75788
-1.87803
3.75289
-4.69192
-0.162263
-4.69192
4.96337
-0.10918
4.96337
5.32401
0.0131214
-5.32401
0.162068
4.96195
0.0221095
4.96195
-5.30947
0.0257828
-5.30947
5.279
0.00469251
5.279
5.03549
-0.0735376
-5.03549
-0.0772884
5.25141
-0.0420449
5.25141
3.18266
-0.0568045
3.18266
-3.09454
-0.0313185
-3.09454
2.98796
-2.98796
2.96978
0.0181787
-2.96978
0.0166137
-11.1273
11.1124
-0.0364913
-11.0908
5.17267
5.17267
4.24452
0.546771
4.24452
-5.02526
0.199004
-5.02526
3.33821
-6.66497
3.25503
-6.58682
3.33884
-11.4568
3.35249
-6.62264
5.23133
-5.23133
5.1799
0.051425
-5.1799
0.053502
-2.02413
0.002237
-2.02413
-3.52713
-0.29217
-3.52713
4.10245
-0.283151
4.10245
-3.0311
3.0311
-3.09498
0.0638781
3.09498
0.0614081
5.26877
-0.0173581
-5.26877
-0.0075378
1.14255
0.218911
-1.14255
0.210199
3.72943
-0.186382
3.72943
-3.32978
-0.213267
-3.32978
-2.05501
0.030885
2.05501
0.0102939
-5.81294
0.245322
-5.81294
-11.1833
0.0924639
-11.1452
-6.11331
-6.11331
2.32783
11.1199
-3.07327
-0.0212725
3.07327
-0.0257202
2.98591
0.0451883
-2.98591
0.00216476
-2.99087
0.00291013
2.99087
-0.00711577
-2.53575
0.403025
-2.53575
-0.351766
0.351766
-0.538463
0.186697
0.538463
0.449357
1.73546
-0.560664
1.73546
1.94008
0.035649
-1.94008
0.118418
-4.00535
-0.0672751
-4.00535
5.10804
-0.144669
5.10804
-3.22481
-0.104968
3.22481
-0.0421476
-0.0338429
11.1463
-5.13883
0.0332586
5.13883
-11.2098
11.2431
-3.23007
0.694324
3.23007
1.01444
5.29549
0.272133
-5.29549
0.270223
5.26351
0.0154816
-5.26351
0.032187
-3.14519
-0.381937
-3.14519
-4.40154
-0.290385
4.40154
-0.299087
-11.4827
-0.19989
11.6826
-11.4244
6.01283
0.144235
-6.01283
11.3873
-0.669157
-0.505644
0.669157
-0.31739
2.23473
-0.499269
2.23473
3.92011
-0.190686
-3.92011
-0.0852345
-5.24255
-0.066919
5.24255
-0.134516
-2.70022
-0.444972
2.70022
-0.465487
-4.28097
4.31646
1.89028
-3.34383
-3.3854
-7.6412
1.86476
1.89313
4.30011
-7.0522
-4.40456
-6.94283
7.24209
-6.97187
-9.35178
9.26495
7.43009
-7.43065
-5.73925
5.80066
6.36134
-6.3299
1.86767
1.8841
10.5446
-10.4318
-10.5872
10.4249
10.2245
-10.2707
10.7286
-10.7028
-12.3754
12.3908
-5.73745
5.76776
-6.62725
6.59593
-6.76493
6.72279
-3.35185
-3.23497
9.01244
-8.94092
11.7499
-11.754
-10.4751
10.3591
3.37448
0.94198
3.42341
-1.89
3.75767
-1.86644
3.75672
3.31744
-6.66929
3.34753
-6.73293
6.05332
5.69662
-6.03241
-1.60879
-5.88393
5.86056
-5.84876
5.84164
8.38513
-8.48923
-1.88032
3.76442
-1.87257
3.76569
-3.3947
-2.34455
3.3695
0.930607
5.5597
3.45274
-5.65093
-1.29189
-7.58265
7.39196
-7.8335
7.62023
-0.467349
5.85024
-5.38289
4.38812
-1.61552
7.46576
5.62657
5.82558
5.86624
-5.59411
1.10563
-6.48852
-6.39037
-2.67013
2.80844
2.62662
-2.44344
5.85474
1.57536
5.79367
-5.48045
-1.9502
-5.54772
3.79159
2.00907
3.85547
4.02064
2.3407
4.02067
3.06303
-3.029
-0.0340289
-3.08717
6.1502
0.73542
-5.43172
-4.50111
6.88284
3.66171
6.94797
-7.02373
-3.40807
-6.86166
-6.42265
-4.16454
-6.71304
6.69539
3.72954
6.58621
-8.00024
7.86572
6.82185
3.40265
6.77144
-6.76797
-3.5027
-6.84526
10.4747
-2.69183
-7.78283
-6.92778
-5.44758
6.92309
3.80549
7.52298
4.86787
7.55516
3.57352
6.90114
-7.37901
1.93143
-3.83896
-1.8985
-3.82234
3.72012
2.04763
3.77526
-4.15571
-2.47154
-4.17699
-4.19504
-2.5699
4.25184
2.34409
-4.29118
-3.54232
4.39615
2.32664
2.96404
-7.36861
3.65859
-6.89356
-6.27101
-2.66991
-6.21751
4.08011
2.63666
-6.71677
-2.58917
10.9309
-5.23428
9.3221
-7.31245
-4.44155
-7.31999
-7.01428
-3.46079
-7.41853
-6.05901
5.67708
-6.08019
5.79704
11.6741
-5.15596
-6.51817
-3.90881
-2.42109
3.85387
-0.430463
-3.75886
3.72483
-0.00119163
3.75553
4.69751
4.26705
-3.87929
-1.96947
-3.87712
3.84472
1.99692
3.84763
6.20944
2.1757
6.15556
-6.07425
-2.41499
-6.21063
9.29216
-8.73441
2.93416
-2.90328
5.08606
2.53417
-4.89968
-2.68297
5.95858
-2.95301
-3.00557
-12.3766
10.8002
1.57632
-4.91079
-0.522671
0.111244
-5.58901
-3.76276
5.46722
0.358362
11.1586
7.39583
-5.51735
5.76267
6.16522
6.22181
-0.168564
5.88485
-5.19053
5.44155
-2.36789
-3.07367
5.17482
-5.32383
-1.03581
-5.24649
4.21068
0.469842
1.91076
-1.61233
-2.18908
-0.481046
-2.07066
1.60441
1.02221
1.82332
0.996148
1.8123
-2.8349
0.492436
2.34247
-1.83875
-1.951
-3.59092
-0.954309
4.54523
5.36779
2.02417
-5.28256
-0.265167
2.81745
-2.79921
-0.858417
-2.7325
1.95232
-2.81073
-3.3615
-1.89142
5.25292
-3.37336
-0.503761
3.32818
0.527295
-3.75421
-2.12972
3.74875
0.271921
-3.07346
6.12614
-3.05268
-5.04293
2.55408
3.59612
4.56314
-4.86179
2.48512
2.37667
-1.26567
5.9501
0.997871
5.97221
-9.11765
5.70957
7.43239
2.92667
-7.44551
0.583854
-8.53379
9.70099
-8.17503
-1.52595
5.22228
4.47871
5.52716
6.14696
-4.15695
9.68411
-0.557115
-7.61792
9.09091
-6.16423
4.92235
-11.0866
-11.0693
3.45139
-6.98658
8.57531
-1.58873
-2.48451
-5.51573
9.47109
-0.92581
-8.54528
5.6604
-5.36944
-5.27352
10.643
-8.06127
8.77622
-2.65836
-6.11786
-6.6833
-4.0195
6.75022
1.1155
-9.91162
11.843
-3.01047
5.92937
0.842069
5.88733
3.92185
-6.03336
2.11151
4.13942
-6.79778
2.53148
-8.56484
-4.829
9.46466
-4.63566
-7.4989
-6.70056
-0.798347
2.0297
9.81334
-6.89757
5.31148
1.58609
3.31694
0.530694
-3.33512
-0.487224
0.337387
4.43169
-4.76908
4.11265
4.20164
3.24827
1.18341
3.83016
2.0304
-3.80444
-0.372546
-4.01791
1.44802
-1.67382
-3.36905
4.81706
-3.85049
0.481442
-2.62595
-3.44496
6.07091
-4.52445
3.04525
3.08089
5.04217
-4.76273
1.31777
-2.35384
-2.40889
2.53272
-4.20654
1.81244
3.00463
4.13907
0.596758
4.78903
4.67564
-7.42569
0.532123
8.12838
-6.83648
1.67951
5.87565
-6.99099
0.290436
-5.92708
1.1215
-6.35578
-5.59528
4.68635
-8.14714
-6.40024
6.06234
0.0932223
-5.82307
-1.59546
-3.90458
-2.15443
-4.34955
-1.892
-4.18819
-6.04895
-1.19672
-4.85223
4.48036
-4.53781
-2.17523
4.83689
0.960142
-6.7985
6.29286
-5.5263
5.02703
0.0407102
3.68412
4.30776
1.88666
-2.41846
4.30512
-3.6277
5.8034
-7.33295
3.70525
4.02804
-6.44302
-3.30492
5.00651
4.28565
5.59366
8.78264
-12.4252
3.64259
-11.9669
10.9767
0.990217
-17.2179
5.25099
-8.43524
2.70645
0.227713
2.70869
0.630579
2.31734
-2.94792
-2.2727
-2.2624
-2.15222
-3.22872
5.38094
1.06033
-3.1714
2.11107
-3.4159
4.47623
0.0766338
-3.24804
5.10829
-2.79095
5.336
-3.33926
1.99674
3.16763
5.40025
-2.23262
4.18989
-1.65573
1.7218
-3.95442
-1.50693
-2.95317
5.00081
-3.11774
3.59918
-0.231733
3.83091
-3.86734
0.914331
-0.619069
3.58257
3.68405
4.21251
-3.0291
2.74747
-4.4032
-1.20695
-3.80644
-0.801814
0.893267
-4.83666
3.94339
7.45073
-6.55746
-5.391
10.0103
-4.61927
7.83754
-5.4365
-2.40104
-4.31549
-4.41892
3.91246
1.97239
9.80993
0.198216
-5.63471
-4.99231
-3.97787
3.24565
2.19591
-2.13906
3.71537
2.02781
-0.117049
0.593773
1.22955
1.84305
-1.24928
0.17258
1.67047
-1.43975
2.11756
0.699892
-2.1532
0.0825423
-1.35222
3.30453
0.990248
-2.01246
0.76318
1.11328
-3.48117
4.66394
-2.47498
-2.18896
5.77722
1.00848
-3.48346
4.23801
-3.76817
2.27483
-3.22914
-1.20863
-4.9768
-3.40144
-2.36467
4.47574
-3.01627
5.04044
1.11424
-4.77527
5.88951
-3.36948
1.47806
-3.04088
3.74077
-1.10675
-1.93414
2.65667
2.59625
-2.82751
0.0950117
-0.170846
2.18604
-2.35689
-0.624689
-2.46344
-4.56761
4.83953
-2.07821
4.56333
2.22691
-1.92042
6.48375
1.82742
-3.74784
-3.21551
-3.71927
-1.37117
3.19197
-1.02124
-5.82402
-7.1391
5.89756
0.0746468
-9.11607
10.3329
-1.21682
-5.45436
-0.255216
5.4775
-7.52061
0.722827
-4.98913
5.34376
6.34163
6.41628
-8.55997
0.0146874
-4.83042
1.3995
-6.22992
5.87821
-3.24667
6.69807
-7.39758
5.22235
-6.43744
5.17211
-1.05781
5.59175
-3.48024
2.19108
-6.21057
-5.09507
6.9718
-3.56915
7.81387
-4.06333
11.8772
-7.0738
6.91028
4.96692
-1.37742
-5.94257
-6.83768
5.46026
0.0725998
5.95993
4.86031
-2.82992
4.48777
2.19031
-4.54416
-2.01623
-6.39185
1.8477
-3.31096
-1.85256
3.70026
3.18961
3.7203
1.29137
-3.23308
6.63649
-7.43484
-2.00082
-3.59445
6.76145
-1.30119
4.03588
-7.63033
-2.3199
7.08401
-3.12072
-3.9633
-1.92806
-4.47218
4.01658
-8.48876
4.13055
-5.72601
2.0592
-10.4944
-4.7393
-5.05669
-1.6438
-3.8825
-7.10068
5.45688
-1.84969
4.44317
-8.84838
5.72766
-2.1283
7.58518
-3.53279
-0.816765
3.99828
1.02876
8.61394
1.29491
-4.59983
-2.19069
4.54315
-2.35246
1.05496
-3.54175
1.0014
2.41235
3.36487
-6.62303
0.180005
-4.41982
-4.03657
8.32222
5.9737
13.4244
0.9992
9.76562
-1.44339
10.7648
4.15027
4.59963
-3.53875
7.18135
0.404639
4.10989
-0.821209
2.81795
1.88748
1.9154
0.883811
2.21799
1.46607
3.13232
0.184399
-2.07801
4.64512
-8.62299
-0.989595
-8.07621
1.18874
5.51238
-4.32364
3.4693
-1.27339
1.11684
0.369501
-1.79207
1.42257
-2.70416
-1.90912
-0.238653
-1.50304
2.26622
1.80149
-2.02757
-0.676598
0.269515
-3.67096
2.95962
-2.86461
-0.268358
5.62116
-2.54307
0.186181
-1.06501
-2.27726
-2.75831
2.67577
6.14669
0.337057
3.09401
5.17659
3.04686
0.216946
4.48501
-6.07374
-4.07983
-6.05905
-0.180843
5.29665
2.03989
7.77345
7.00681
5.70562
-1.92471
-9.35954
7.06223
0.11912
8.05244
-4.08915
-4.39962
4.09467
1.70873
-4.18789
-1.53812
-5.93774
-5.81862
-1.22726
6.95493
-7.38667
6.56991
4.41548
0.436756
-4.45196
-0.604728
4.26527
0.334362
11.0992
-0.911385
-6.93675
7.84813
-4.60099
3.6114
1.13583
2.57954
2.5584
1.28501
-5.65173
-9.97538
-1.90308
-1.57808
-4.09204
0.45319
-2.25468
6.19221
-2.58081
3.79117
5.26732
6.38415
-1.82221
-4.73525
6.44148
-2.65031
3.73385
)
;

boundaryField
{
    wall-4
    {
        type            calculated;
        value           uniform 0;
    }
    velocity-inlet-5
    {
        type            calculated;
        value           uniform -3.75095;
    }
    velocity-inlet-6
    {
        type            calculated;
        value           uniform -5.62643;
    }
    pressure-outlet-7
    {
        type            calculated;
        value           nonuniform List<scalar> 8(6.34582 6.21315 6.62857 6.75904 6.60193 6.68025 6.59325 6.69133);
    }
    wall-8
    {
        type            calculated;
        value           uniform 0;
    }
    frontAndBackPlanes
    {
        type            empty;
        value           nonuniform 0();
    }
}


// ************************************************************************* //
