/*--------------------------------*- C++ -*----------------------------------*\
  =========                 |
  \\      /  F ield         | OpenFOAM: The Open Source CFD Toolbox
   \\    /   O peration     | Website:  https://openfoam.org
    \\  /    A nd           | Version:  6
     \\/     M anipulation  |
\*---------------------------------------------------------------------------*/
FoamFile
{
    version     2.0;
    format      ascii;
    class       volVectorField;
    location    "9";
    object      U;
}
// * * * * * * * * * * * * * * * * * * * * * * * * * * * * * * * * * * * * * //

dimensions      [0 1 -1 0 0 0 0];

internalField   nonuniform List<vector> 
918
(
(0.9848 -0.0014147 0)
(0.00523906 2.96632 0)
(-0.00242944 1.68637 0)
(0.979649 0.00210801 0)
(-0.00366849 1.65535 -1.47589e-21)
(-0.00698957 2.94852 -2.07423e-18)
(0.888351 1.16095 7.27686e-19)
(0.520173 0.266746 -9.13082e-21)
(0.999939 7.61213e-05 0)
(0.0741594 1.49241 0)
(-0.0134195 1.5323 0)
(0.872475 -0.00129694 0)
(0.0102037 2.93101 0)
(0.00230185 2.79402 0)
(-0.00172768 3.18286 1.06212e-18)
(-0.00120353 1.59221 -1.75074e-20)
(0.625742 0.12161 5.57071e-19)
(0.253655 1.69692 5.26111e-19)
(0.971025 0.0181 0)
(0.000946521 1.58023 0)
(0.232676 0.308278 -4.95396e-19)
(1.00146 -0.00432459 0)
(1.00022 -0.00850983 0)
(0.972305 -0.00580566 0)
(0.804954 -0.0269942 0)
(0.0245217 2.63346 0)
(-0.0130318 2.91127 7.25404e-19)
(-0.0107491 1.69833 0)
(-0.00780205 1.77002 0)
(-0.0117805 1.70931 0)
(-0.00105729 1.80269 0)
(-0.00166437 1.67417 1.16903e-21)
(0.00375179 1.59209 0)
(-0.0221841 2.98753 -7.3304e-23)
(-0.0166206 3.00554 1.61376e-18)
(0.00228644 3.00072 0)
(0.907216 -0.00317108 0)
(0.262507 0.892046 1.50341e-20)
(0.838316 1.21097 -1.03981e-18)
(0.98779 1.01592 9.70679e-19)
(0.712042 1.33268 -1.62572e-19)
(0.773227 1.26258 9.09623e-19)
(0.569232 0.320096 8.90842e-21)
(0.566379 0.215268 0)
(1.20124 0.560098 0)
(0.510859 0.336966 4.10777e-20)
(0.490698 0.257377 -4.2622e-20)
(0.92014 -0.00133064 0)
(0.99975 0.000295761 0)
(0.999949 0.000142611 0)
(1.00354 -0.00759555 0)
(1.00115 -0.00152256 0)
(1.00014 -0.00044075 0)
(0.0228323 1.55847 -5.57156e-19)
(0.044851 1.62361 0)
(0.11862 1.51298 0)
(0.0190904 1.63155 0)
(0.0318767 1.45088 0)
(-0.00721219 1.60027 0)
(-0.0154297 1.62818 0)
(-0.00942813 1.52019 0)
(-0.0147774 1.6514 0)
(-0.00838668 1.55212 0)
(0.935951 0.0130452 0)
(0.931053 0.00450917 0)
(0.881917 -0.00617453 0)
(0.922816 0.0127745 0)
(0.849704 0.0163792 0)
(0.0141306 3.00006 7.62477e-19)
(0.011476 3.00548 0)
(0.00666641 3.00407 0)
(0.0120924 2.99673 8.55898e-24)
(0.00836165 2.95854 -1.13323e-18)
(0.0125247 2.98262 0)
(0.00938339 2.90422 0)
(0.0222564 2.93105 1.60481e-24)
(0.00313713 2.82456 0)
(0.0283588 2.91749 0)
(-0.00337597 2.74332 0)
(0.304918 3.57821 0)
(-0.12345 3.65927 0)
(0.148294 3.27332 -9.88503e-19)
(-0.00331449 3.01134 0)
(0.00855952 1.76021 0)
(-0.00306778 1.67436 1.72735e-20)
(-0.00256043 1.59457 -3.27816e-20)
(0.695228 0.162997 -1.90996e-19)
(0.657544 0.0627961 -1.81196e-19)
(0.667639 0.193968 -5.72906e-19)
(0.632386 0.132986 -3.82787e-19)
(0.246703 1.30278 0)
(0.272492 1.72124 -5.55123e-19)
(0.457213 1.60799 9.28162e-19)
(0.990076 0.0135012 0)
(0.952289 0.0162992 0)
(1.00037 0.000876461 0)
(1.00204 0.0101371 0)
(1.00269 0.0144777 -9.75392e-19)
(0.990607 0.00768732 7.38476e-19)
(-0.00206604 1.6649 0)
(0.00586423 1.5848 0)
(-0.00841246 1.72174 0)
(-0.00533104 1.67819 0)
(-0.0012432 1.58309 0)
(0.308425 0.323009 1.51945e-19)
(0.337619 0.297381 0)
(0.990836 -0.00475844 0)
(0.958056 0.00235798 0)
(0.890478 0.0339369 0)
(0.866894 0.0214944 0)
(0.824184 0.00668757 0)
(1.05737 0.0135267 0)
(0.834285 0.0064318 0)
(0.747099 -0.00957744 7.23525e-19)
(-0.0377062 2.8656 4.42975e-19)
(0.0370278 2.91152 0)
(0.0468096 2.88801 0)
(0.00073479 2.69737 0)
(-0.0085321 2.98525 6.79796e-19)
(-0.0139103 2.89537 0)
(-0.0114077 2.99072 -2.12322e-18)
(-0.0124919 2.92861 7.27566e-19)
(-0.00626002 1.79513 0)
(0.00119462 1.78245 0)
(0.000930384 1.6792 -6.02166e-22)
(0.00284944 1.67056 0)
(0.00254084 1.58461 0)
(0.955993 0.00539523 0)
(0.910609 0.010141 0)
(0.892721 -0.0124264 0)
(0.957541 -0.00408161 0)
(0.90599 -0.00443639 0)
(0.413455 1.10811 -2.19303e-20)
(0.498829 1.20612 0)
(0.118378 0.733403 5.61128e-21)
(0.225419 0.502954 0)
(0.9417 1.06736 -2.83463e-19)
(1.06689 0.84924 5.82083e-19)
(0.385273 1.61114 0)
(0.545736 1.4568 0)
(0.620289 1.41779 0)
(0.309109 0.168142 -2.0694e-19)
(0.602165 0.289288 0)
(0.588929 0.210695 1.12126e-19)
(1.03124 0.908482 0)
(1.12007 0.741882 0)
(1.14966 0.681794 -5.15805e-19)
(1.20474 0.58844 0)
(1.25598 0.418566 5.40026e-20)
(0.956786 0.00239451 0)
(0.956348 -0.00391415 0)
(0.909932 0.00140702 0)
(0.98677 -0.00191155 0)
(0.968646 0.000750868 0)
(0.944651 0.000890324 0)
(1.00168 0.00271389 0)
(1.00011 0.000416644 0)
(0.999837 0.000484004 0)
(0.0161595 1.63327 3.02509e-19)
(0.0685422 1.54252 0)
(0.000171091 1.65065 4.94655e-19)
(0.0101519 1.56021 -4.23714e-19)
(0.112879 1.71652 -4.46005e-19)
(0.068978 1.67843 0)
(0.22227 1.60655 0)
(-0.0024113 1.59509 0)
(0.00331613 1.45233 0)
(-0.0111508 1.68945 -1.36721e-21)
(-0.00606146 1.62795 0)
(-0.00889016 1.68358 -6.79571e-20)
(-0.0022697 1.60558 1.28442e-19)
(-0.019313 1.60664 0)
(-0.0159802 1.62738 0)
(-0.00851712 1.48989 0)
(-0.0115981 1.66447 0)
(-0.00149721 1.56097 0)
(0.995352 0.0165482 0)
(0.95847 0.00384365 0)
(0.978781 0.0115346 0)
(0.93091 0.00721026 0)
(0.889049 -0.000398905 0)
(0.946068 0.0101193 0)
(0.941354 0.00292105 0)
(0.886158 0.00432744 0)
(0.0106295 3.06645 -6.80853e-21)
(0.0143875 3.05806 0)
(0.0126428 2.96943 0)
(0.00810432 2.87596 0)
(0.893752 3.97139 0)
(1.18856 3.36649 9.90256e-19)
(0.079713 3.0964 0)
(-0.0196134 2.92294 0)
(0.00698039 1.77288 0)
(0.0133519 1.75466 0)
(0.00993015 1.75745 0)
(0.00195919 1.79035 4.36851e-21)
(0.0143819 1.76701 0)
(0.001386 1.78263 0)
(-0.00318972 1.59179 3.41632e-21)
(-0.00228154 1.68033 3.98734e-20)
(0.000930315 1.67278 3.34935e-20)
(0.00031407 1.58423 0)
(0.713257 0.116835 2.7498e-19)
(0.672546 0.0418355 -2.67521e-19)
(0.194955 1.39525 0)
(0.317399 1.21532 -2.62383e-19)
(0.148414 1.45419 -7.60257e-19)
(0.192407 1.35904 7.58971e-19)
(0.900133 0.0122622 0)
(0.971631 0.0201395 0)
(0.980055 0.0203595 0)
(0.932454 0.0250475 0)
(0.00079626 1.66816 0)
(0.00148662 1.66896 0)
(0.0098592 1.57574 0)
(0.467345 0.354269 3.77347e-19)
(0.414304 0.340612 -4.65045e-19)
(0.423129 0.257596 0)
(1.17893 0.0853135 -7.09868e-21)
(1.16532 0.0296963 0)
(1.08409 0.0465781 0)
(0.999521 0.00188294 0)
(0.736926 0.101949 0)
(0.776377 0.0721164 -1.15793e-18)
(0.702502 0.0472958 4.43692e-19)
(0.0117599 2.97963 5.26361e-19)
(-0.031232 2.86467 4.82462e-20)
(0.00858311 3.05325 -1.45379e-20)
(0.014772 3.04372 5.53322e-19)
(-0.0121484 2.99967 2.41128e-20)
(-0.0124414 2.95199 -9.77602e-23)
(-0.0152046 3.01352 -4.59438e-19)
(0.0134238 3.0273 3.21419e-19)
(0.00721081 3.03418 -5.17196e-19)
(0.977193 0.00735157 0)
(0.971534 0.00833412 0)
(0.919921 0.00624286 0)
(0.953542 0.014962 0)
(0.949903 -0.00162602 0)
(0.887561 0.00405189 0)
(0.949754 -0.00153533 0)
(0.944667 -0.00712043 0)
(0.892967 -0.0123349 0)
(0.660071 1.43369 2.14583e-19)
(0.687792 1.54215 0)
(0.11207 -0.171014 -3.88604e-20)
(0.244297 0.341988 -4.51227e-19)
(0.153453 0.385564 1.04608e-19)
(0.195573 0.0856329 -2.34447e-19)
(0.410331 0.774101 1.21007e-18)
(0.323048 0.474522 3.62806e-19)
(0.666838 0.227566 4.16455e-19)
(0.630572 0.272582 1.02679e-19)
(0.615225 0.177199 2.14671e-19)
(1.24727 0.452503 3.29414e-19)
(1.27717 0.253334 3.45702e-19)
(0.00316951 1.65696 1.98088e-19)
(0.0179442 1.59224 0)
(1.03204 0.0205088 0)
(1.00889 0.00934172 0)
(0.967497 -0.00565827 0)
(0.011874 3.07281 0)
(0.0172623 2.94406 9.29844e-19)
(0.0141323 2.95575 0)
(0.00504278 2.84973 -9.22913e-19)
(0.00860527 3.09089 2.23563e-19)
(0.0119368 3.08075 0)
(0.714667 1.83024 -2.25419e-19)
(1.2339 2.62619 7.51695e-19)
(0.700251 2.00402 -1.56442e-18)
(0.0232354 2.98203 -4.09539e-19)
(0.0413741 3.00667 0)
(-0.0355486 2.88443 0)
(-0.000862287 1.6751 -4.41246e-21)
(-0.00353905 1.68038 -9.35301e-20)
(0.00031684 1.59449 -6.24389e-21)
(0.272824 1.29572 8.24774e-19)
(0.357611 1.10596 -5.70953e-19)
(0.0518779 1.5907 5.01242e-19)
(0.0925917 1.52174 -6.23694e-19)
(0.123695 1.45944 7.88076e-20)
(0.00729583 3.11994 -1.19128e-18)
(0.0140129 3.12068 1.30623e-18)
(-0.00444 2.98068 6.10859e-19)
(-0.000594252 2.97611 -5.60142e-19)
(-0.0173154 2.87887 -6.22175e-19)
(0.0129039 3.0996 -1.64208e-18)
(0.00520554 3.10531 1.65583e-18)
(0.446724 0.572296 0)
(0.393166 0.442209 3.91966e-19)
(0.176594 -0.0560356 -1.13744e-19)
(0.409333 0.906019 1.00841e-18)
(0.401321 0.731467 -1.53689e-18)
(1.25201 0.177238 -6.54036e-20)
(1.2738 0.308724 0)
(1.25107 0.129092 1.35905e-19)
(-0.00274773 1.69902 -1.65783e-21)
(0.00600865 1.67608 0)
(0.00955396 1.62222 0)
(0.323048 1.16768 -2.91121e-19)
(0.357717 1.04893 -6.86349e-19)
(0.380627 0.932774 1.22769e-18)
(1.00498 -0.0125309 0)
(1.00357 -0.00593418 1.76802e-19)
(-0.00695991 1.79542 0)
(-0.0095238 1.80004 0)
(1.00271 0.00171688 7.43906e-22)
(1.00559 0.00591989 3.65594e-19)
(0.0011307 1.79048 -5.56878e-21)
(-0.00239277 1.79056 0)
(0.0425101 3.18439 2.14819e-19)
(0.373902 3.54824 0)
(1.09649 0.707787 8.18042e-20)
(1.0053 0.00392657 -3.94446e-21)
(1.00138 -0.0126971 0)
(1.00058 -0.00220907 7.46256e-22)
(0.0212168 1.82196 0)
(0.024145 1.76599 0)
(-0.0139038 1.79637 0)
(-0.00487192 1.78324 9.49984e-20)
(0.000361452 1.79235 4.76173e-20)
(1.00162 0.014171 9.46811e-22)
(1.04367 0.00818217 0)
(1.07203 0.0283299 0)
(0.0136015 1.76076 0)
(0.00806183 1.78149 0)
(-0.00669049 1.79253 0)
(0.077416 1.80156 -2.62349e-19)
(1.01348 -0.0186388 0)
(1.01035 -0.0217413 0)
(1.00615 -0.00138232 2.23182e-19)
(1.00102 -0.00404859 -2.69237e-19)
(1.00212 -0.00289112 0)
(0.00335427 1.76985 0)
(-0.00419713 1.79348 0)
(0.00189822 1.78184 0)
(-0.00535248 1.7949 0)
(-0.0045581 1.79299 0)
(-0.00557883 1.79483 0)
(1.02225 0.00505291 0)
(1.02022 0.00439927 -4.27691e-22)
(0.688347 1.21323 5.10078e-19)
(1.00063 -0.00147643 -2.22951e-19)
(1.00215 0.00277943 2.71673e-19)
(1.00106 0.00169116 0)
(1.00621 0.0064087 2.20299e-19)
(1.00857 0.00534991 -2.7039e-19)
(1.0028 -0.000810697 0)
(0.0067823 1.78466 0)
(0.00360076 1.78843 1.86541e-20)
(0.00426608 1.78237 -1.39788e-20)
(1.15489 0.254045 -9.15782e-20)
(1.10179 0.0839025 0)
(0.061135 3.09158 -6.2846e-19)
(0.0557309 2.86506 -4.80227e-20)
(0.118413 3.20933 7.5733e-19)
(0.1351 3.22086 -9.38109e-20)
(0.138486 3.26798 0)
(0.0245478 3.13961 1.55935e-19)
(0.069967 3.16518 6.23986e-19)
(0.0696114 3.18661 -2.95847e-19)
(0.0308767 3.1273 0)
(0.702955 0.351434 0)
(0.601414 0.401715 0)
(1.07654 0.735708 -2.81537e-19)
(1.02609 0.828533 4.10764e-19)
(1.10681 0.563333 0)
(1.13473 0.556021 0)
(1.00878 0.00879244 -4.05517e-19)
(1.01002 0.009187 5.10551e-19)
(1.00747 -0.00992446 0)
(1.00978 -0.00410481 0)
(1.01864 -0.00892581 0)
(1.01843 0.00901184 0)
(1.00866 -0.000519016 0)
(1.0136 0.0124001 0)
(1.00684 0.00272377 0)
(1.00504 0.00383366 0)
(0.0233877 1.82122 0)
(0.0120061 1.82386 0)
(0.0315699 1.83363 0)
(0.015083 1.83228 0)
(0.0405486 1.75796 0)
(0.0534039 1.76401 -3.17027e-19)
(0.013391 1.77617 0)
(0.00642192 1.76862 1.62605e-19)
(0.0333975 1.78529 -1.59832e-19)
(-0.0112043 1.80067 0)
(-0.00975629 1.79999 0)
(-0.018801 1.7965 0)
(-0.0219774 1.80404 0)
(-0.00164097 1.79078 -5.65859e-20)
(-0.00054427 1.79245 6.7335e-20)
(-0.00457713 1.79221 8.36889e-20)
(-0.00109126 1.79243 0)
(-0.00268044 1.79445 -1.07282e-19)
(-0.0028574 1.79124 -6.17976e-20)
(0.000426384 1.79176 4.4345e-20)
(-0.000952373 1.79088 -8.4255e-20)
(-0.000284615 1.79225 -9.82087e-20)
(1.00872 0.0131894 3.88642e-19)
(1.01103 0.00515236 -4.89072e-19)
(1.0031 0.0248055 -4.07877e-19)
(0.98896 0.0207704 5.14e-19)
(1.04066 0.0147549 0)
(1.04468 0.00532062 0)
(1.06138 0.032325 0)
(1.04426 0.00404695 0)
(1.06174 0.0120562 0)
(1.09147 0.0593257 0)
(1.07654 0.0418111 0)
(1.09597 0.0402301 0)
(0.0127686 1.77468 -1.98392e-21)
(0.0125716 1.75816 0)
(0.0135021 1.76468 0)
(0.00291396 1.78485 2.21924e-20)
(0.00157863 1.78451 -9.38162e-22)
(-0.00287244 1.7738 1.722e-20)
(-0.0044736 1.78121 -1.74701e-20)
(-0.00581359 1.79326 0)
(-0.00452729 1.79311 0)
(-0.00452348 1.79177 0)
(-0.00427662 1.79287 0)
(-0.00456515 1.79157 0)
(0.145891 1.73796 4.84991e-19)
(0.173838 1.66451 2.46052e-19)
(0.419338 1.64159 -2.08447e-19)
(0.165828 1.70019 5.14146e-19)
(0.145377 1.92507 1.3584e-19)
(1.00205 -0.0159752 0)
(1.00705 -0.0213849 0)
(0.997668 -0.0268119 0)
(1.01654 -0.0124332 0)
(1.00475 -0.00804849 0)
(1.00093 -0.00790789 0)
(1.00409 -0.0130414 0)
(1.00073 -0.0143655 0)
(1.02254 0.00223297 3.70877e-19)
(1.02562 0.000912593 -4.86732e-19)
(1.0191 0.00558846 -3.71035e-19)
(1.01569 0.00590019 4.71045e-19)
(0.703327 1.22417 0)
(0.566491 1.2898 5.75696e-19)
(0.790646 1.13225 3.63015e-19)
(0.823967 1.13581 -4.85057e-19)
(1.13747 2.6422 -3.93011e-19)
(0.816336 0.124039 2.78938e-19)
(1.10465 0.0874044 0)
(1.15938 0.181594 8.33478e-20)
(1.16101 0.146911 5.22668e-21)
(0.973626 0.1273 0)
(0.116579 3.04212 -3.96167e-20)
(0.112202 2.90618 -7.10185e-19)
(0.0638688 2.33922 4.88052e-19)
(0.190908 0.140367 -2.20634e-19)
(0.352075 3.43566 -4.21161e-19)
(0.200805 3.34013 0)
(0.213645 3.40175 5.48625e-19)
(0.236885 3.08932 -2.7102e-19)
(0.273123 3.19893 0)
(0.00790541 3.12162 3.32576e-20)
(0.0196833 3.13078 -4.03916e-19)
(0.0177573 3.12641 5.94529e-19)
(0.0374388 3.13987 0)
(0.035894 3.15206 0)
(1.28072 2.56899 0)
(0.540546 0.860864 -2.53226e-19)
(0.961792 1.00777 -2.10208e-19)
(0.932723 1.01486 0)
(0.83691 0.901292 7.32361e-20)
(1.02741 0.86261 3.42076e-20)
(0.44533 0.460218 -5.57413e-19)
(0.727416 0.345985 -2.22879e-20)
(0.739313 0.315528 2.18545e-19)
(0.609676 0.425187 1.78182e-20)
(0.570917 0.430209 -7.31251e-19)
(0.696039 0.362989 0)
(0.670291 0.426756 3.70341e-19)
(0.67347 0.42828 0)
(0.648704 0.414136 0)
(0.668285 0.360814 0)
(0.734577 0.604006 1.18773e-19)
(1.15407 0.26268 5.8704e-20)
(1.15747 0.413239 0)
(1.1794 0.394254 0)
(0.797821 0.223426 3.29706e-19)
(0.77209 0.551629 -1.80108e-19)
(0.70479 0.486193 2.93158e-19)
(0.875564 0.415005 -2.60403e-19)
(1.02429 0.00119128 2.67195e-19)
(1.01713 0.00587914 -2.78687e-19)
(1.02065 0.00675538 0)
(1.02 0.0120129 0)
(1.00991 0.00492732 -2.41906e-19)
(1.01357 0.000574965 2.41414e-19)
(1.01623 0.00413715 0)
(1.0158 0.00393644 0)
(1.02074 0.0098217 0)
(1.02301 0.00905619 0)
(1.02979 0.00685124 0)
(1.02479 0.00616467 0)
(0.0124188 1.82181 0)
(0.00588766 1.81375 0)
(0.0579248 1.83 2.17646e-20)
(0.0845486 1.81047 1.30068e-19)
(0.0482147 1.84745 2.886e-19)
(0.0423207 1.84274 -4.72375e-19)
(0.0572274 1.84103 0)
(0.0519061 1.78403 -1.10219e-19)
(0.0538718 1.78585 0)
(0.149329 1.88513 -1.9537e-19)
(0.168647 1.81032 5.85643e-19)
(0.0610616 1.80895 9.90687e-20)
(0.0699716 1.80128 5.1668e-20)
(0.0728353 1.82306 -4.32432e-20)
(0.0539912 1.77914 -4.45688e-20)
(0.08878 1.80225 0)
(0.0791835 1.81249 6.57929e-20)
(0.0154946 1.78788 -4.87638e-20)
(0.0313089 1.78026 0)
(0.0265173 1.77532 1.96467e-19)
(0.029678 1.78236 0)
(0.0161341 1.77091 -1.81132e-19)
(0.0282725 1.77716 0)
(-0.0131479 1.77527 -4.41862e-20)
(-0.00066702 1.78899 0)
(-0.0143312 1.78789 0)
(-0.0163854 1.77382 5.05267e-20)
(-0.000705412 1.78248 -4.7368e-21)
(0.0234366 1.78666 1.83485e-19)
(0.0116832 1.78272 1.30401e-21)
(-0.00707908 1.77772 3.65304e-20)
(-0.00578845 1.77877 2.26869e-20)
(-0.0103761 1.79903 0)
(-0.00905105 1.79806 0)
(0.0137702 1.78881 1.1855e-19)
(0.00815033 1.78944 8.04936e-20)
(0.000613013 1.787 -1.15022e-19)
(0.0296889 1.79241 0)
(-0.00531138 1.77194 -7.35425e-20)
(-0.00227563 1.78057 3.28834e-20)
(-0.0039174 1.78308 -1.04911e-20)
(-0.0067031 1.77769 -4.53319e-20)
(-0.00603743 1.7878 -1.52981e-20)
(-0.00602875 1.78901 7.46024e-20)
(1.01395 0.00689548 -2.52732e-19)
(1.0132 0.0032903 2.66018e-19)
(1.01011 0.000917133 0)
(0.990544 0.0617619 3.86079e-19)
(0.985554 0.0249162 -4.42983e-19)
(0.9618 0.0242495 5.11688e-19)
(0.989991 0.0980799 -4.99314e-20)
(1.02859 0.00211307 0)
(1.03606 0.013331 2.13315e-19)
(1.03862 0.00435412 -2.11544e-19)
(1.02904 0.0351473 -1.21008e-20)
(1.02955 0.0163806 1.05836e-19)
(0.998091 0.0340992 0)
(0.986107 0.0293702 -3.95604e-20)
(1.00485 0.0229107 0)
(1.00854 0.0211588 0)
(1.01618 0.00438659 0)
(1.01626 0.00506239 0)
(1.00327 0.0225352 8.30909e-20)
(1.01075 0.017607 -1.86113e-19)
(1.01198 0.0372518 -8.51952e-20)
(0.996128 0.0307418 -9.75931e-20)
(0.99694 0.0363188 1.65386e-19)
(1.0424 0.0395738 0)
(1.04524 0.0813918 0)
(-0.00570152 1.76951 -2.45545e-20)
(0.00557684 1.76126 -2.37219e-21)
(-0.00452326 1.76323 0)
(0.000110126 1.77677 2.44289e-20)
(0.00963968 1.77133 4.1597e-21)
(0.00250531 1.77584 -3.75002e-21)
(-0.0034584 1.79043 5.50171e-20)
(-0.0041468 1.78691 -3.3958e-21)
(-0.00613774 1.78686 1.5796e-20)
(-0.00273015 1.78729 -3.07904e-20)
(-0.00225385 1.78711 3.62393e-20)
(-0.00651101 1.78852 2.52326e-22)
(-0.00998137 1.77516 3.02302e-20)
(0.0583934 1.69785 -2.21971e-19)
(0.0297057 1.7856 -1.85179e-20)
(0.528511 1.35961 -5.58176e-19)
(0.294202 1.56294 -2.36036e-19)
(0.371377 1.48582 0)
(0.469492 1.64126 2.20629e-19)
(0.500916 1.55061 3.0014e-19)
(0.21966 1.70094 5.61414e-20)
(0.235975 1.72367 -6.7642e-19)
(0.305831 1.76513 5.96849e-19)
(0.372406 1.67014 0)
(0.274509 1.68713 -4.45026e-19)
(0.0894393 1.74415 8.23798e-19)
(0.145041 1.72949 -5.40031e-20)
(0.0903076 1.74606 -1.12866e-18)
(0.87784 2.05055 2.443e-19)
(0.641661 1.66471 0)
(1.02425 -0.0178498 8.87787e-21)
(1.00213 -0.015982 -7.11505e-21)
(1.00803 -0.000408979 -1.27173e-19)
(1.02842 -0.00122425 1.27868e-19)
(1.03046 -0.009335 0)
(0.601 0.973121 0)
(0.736748 0.861209 0)
(0.726353 1.05926 0)
(0.724126 0.878276 0)
(1.16374 2.72034 -8.00563e-20)
(0.953864 2.40482 0)
(0.751629 2.7681 -8.43307e-21)
(0.468049 2.58525 0)
(0.656154 2.71885 -5.46003e-20)
(0.739388 2.70497 3.41734e-20)
(0.835901 0.13361 0)
(0.817879 0.150046 8.0824e-20)
(0.886255 0.120906 4.09192e-19)
(0.83785 0.114396 -1.66333e-19)
(0.83605 0.0878232 -4.87155e-19)
(0.999974 0.197486 -2.26327e-19)
(0.911146 0.2773 -1.39305e-20)
(0.886697 0.276886 3.72764e-19)
(0.944914 0.170791 2.58134e-19)
(0.912085 0.158493 -5.05263e-19)
(0.900715 0.154912 6.67257e-20)
(0.941195 0.232318 -1.22005e-19)
(0.907922 0.172854 0)
(0.968257 0.145608 2.38454e-19)
(0.990724 0.159793 0)
(0.981473 0.162403 0)
(1.04228 0.107653 6.78592e-20)
(1.00303 0.153088 -1.27102e-20)
(0.998775 0.212681 -3.94241e-20)
(1.05801 0.192532 0)
(1.00647 0.0257934 1.9261e-19)
(1.00233 0.0282878 2.27221e-19)
(1.00799 0.0293868 -1.87318e-19)
(1.01588 0.0374169 -1.55154e-19)
(1.00639 0.0539495 -2.703e-19)
(0.935844 0.113606 0)
(0.970825 0.0865997 0)
(0.955623 0.038665 -1.83689e-19)
(0.921325 0.0553035 8.04045e-20)
(1.01872 0.0950122 2.21765e-19)
(1.0013 0.11706 -2.16338e-19)
(1.01171 0.146681 2.02299e-19)
(1.01384 0.139774 0)
(1.01742 0.0853342 0)
(1.00495 0.0775664 -8.95276e-20)
(1.01932 0.0794649 -1.7366e-19)
(0.940483 1.21266 -3.75423e-19)
(0.993903 1.72556 4.10558e-19)
(1.24149 2.80573 1.35996e-19)
(1.2276 3.12567 -6.45166e-20)
(1.24649 2.77951 3.94257e-19)
(1.31593 2.70909 -2.19225e-19)
(1.25182 2.31834 -6.01536e-21)
(1.21869 3.048 2.18673e-19)
(1.22326 3.02734 -2.60244e-19)
(1.18977 3.25137 -2.1446e-19)
(1.40756 2.95428 2.61226e-19)
(1.41745 2.89449 0)
(0.542755 0.877367 -1.54075e-20)
(0.223277 1.32908 2.6931e-19)
(0.479339 0.553192 3.6026e-19)
(0.314189 0.351467 4.18055e-19)
(0.565329 0.438397 4.08556e-19)
(0.536196 0.495165 -6.66369e-19)
(0.531686 0.49783 5.48397e-19)
(0.515132 0.487641 -2.15153e-19)
(0.517792 0.417398 4.96064e-19)
(0.792735 0.247567 -1.82736e-19)
(0.76288 0.289418 0)
(0.773881 0.262022 1.19633e-20)
(0.664061 0.51771 1.91546e-19)
(0.646477 0.484644 -7.01771e-19)
(0.5963 0.509782 2.16337e-20)
(0.628183 0.455184 0)
(0.652367 0.752436 1.43994e-19)
(0.777605 0.717153 3.95187e-20)
(0.71417 0.834008 -5.65284e-20)
(0.817416 0.724735 -6.31145e-21)
(0.905554 0.81056 1.79863e-20)
(0.909069 0.803593 -1.84896e-20)
(0.777609 0.635487 -2.03593e-19)
(0.852808 0.697762 5.8744e-21)
(0.937062 0.688276 0)
(0.937244 0.677644 3.70312e-21)
(0.94816 0.306131 5.35156e-20)
(1.08397 0.27259 -4.28679e-21)
(0.989064 0.223314 9.26209e-20)
(0.931171 0.342358 -1.24901e-19)
(0.957145 0.426099 0)
(1.03553 0.395552 0)
(0.79966 0.365428 -1.55988e-21)
(0.842991 0.269235 0)
(0.840204 0.258189 1.92919e-19)
(0.833643 0.274479 3.28029e-21)
(0.876572 0.417513 7.15209e-19)
(0.829031 0.498829 1.75914e-19)
(0.823644 0.439159 -2.47979e-19)
(0.762212 0.425384 2.65373e-19)
(0.747061 0.431389 1.79518e-19)
(0.71328 0.430028 -1.76648e-19)
(1.02085 0.0199644 2.05037e-19)
(1.02648 0.00597644 0)
(1.02383 0.00962351 1.4119e-19)
(1.01571 0.0162018 -3.17189e-19)
(1.02616 0.00803195 1.47926e-19)
(1.02486 0.00776729 -3.1464e-19)
(1.01927 0.00360364 0)
(1.01823 0.00177871 -6.45994e-20)
(1.02748 0.00342176 1.60869e-19)
(1.02371 0.00371134 -8.36722e-20)
(1.02238 0.00552662 6.1061e-20)
(-0.0226476 1.80156 0)
(-0.0152795 1.78804 0)
(-0.00433679 1.81465 0)
(-0.0163234 1.80768 0)
(0.0290773 1.8156 2.98325e-20)
(0.027055 1.82406 -8.8134e-21)
(0.024845 1.79305 -3.89376e-20)
(0.0244415 1.82503 -2.55266e-20)
(0.0232725 1.80231 -7.43219e-20)
(0.0250239 1.80228 5.43294e-20)
(0.0346519 1.81879 -1.78855e-20)
(0.0267715 1.82715 -5.77823e-21)
(0.0144559 1.8088 -2.41071e-22)
(-0.00386359 1.79986 -7.61521e-21)
(0.0223601 1.77367 -2.01573e-19)
(0.0248551 1.76973 0)
(0.0355625 1.76028 1.21978e-19)
(0.044505 1.78152 8.02156e-20)
(0.0899468 1.77418 -8.88632e-20)
(0.0935061 1.73944 0)
(0.0967697 1.73976 -6.21153e-19)
(0.141902 1.78071 4.35512e-19)
(0.0844599 1.77214 -2.31975e-19)
(0.0521018 1.7577 1.28498e-19)
(0.0263233 1.74059 0)
(0.00440391 1.78492 -1.46542e-19)
(-0.00375179 1.78073 -1.72844e-19)
(0.000347634 1.78947 0)
(0.00339609 1.78456 -4.457e-21)
(0.012287 1.78599 7.45711e-20)
(-0.0119353 1.77975 7.48023e-21)
(-0.00975932 1.78502 -1.24291e-19)
(-0.00764383 1.77643 3.33967e-20)
(-0.0105267 1.7657 4.38023e-20)
(-0.0102091 1.773 0)
(-0.00626887 1.77783 0)
(-0.00300487 1.79281 3.06139e-20)
(-0.0017004 1.78458 -9.76561e-21)
(-0.0046423 1.78061 0)
(-0.00672917 1.79572 2.40707e-20)
(-0.00514764 1.79373 -4.71666e-20)
(1.01373 0.0167685 0)
(1.01504 0.0204498 -2.00554e-20)
(1.01264 0.0124437 -1.46683e-19)
(1.0185 0.0229232 0)
(1.01794 0.0274542 0)
(1.01525 0.00252546 -6.78726e-21)
(1.01679 0.00231457 2.37384e-19)
(1.01516 0.0048787 2.98157e-19)
(1.01752 0.00611465 0)
(1.01788 0.00539341 0)
(1.01464 0.0100358 1.51542e-19)
(1.01483 0.00761088 0)
(1.01895 0.00768077 0)
(-0.0122945 1.7737 0)
(-0.0111005 1.76755 3.40427e-21)
(-0.00985748 1.76577 1.58362e-20)
(-0.00518808 1.78454 0)
(-0.00850034 1.77762 2.26053e-20)
(-0.00659478 1.78728 -9.75927e-21)
(-0.00402276 1.79009 0)
(0.0658532 2.15241 0)
(-0.0463274 1.82906 5.96701e-20)
(-0.000981697 1.94236 0)
(-0.0208024 1.76371 -2.65543e-19)
(0.119923 1.43548 0)
(0.0607566 1.63716 1.69657e-19)
(0.957552 2.80788 -1.81902e-21)
(0.893605 2.22428 -3.15389e-19)
(0.931446 2.10849 -5.01261e-19)
(0.699827 1.77713 2.27056e-19)
(0.565938 2.36899 0)
(0.640171 2.48325 0)
(0.865008 1.98053 0)
(0.810028 1.75129 -7.47957e-19)
(0.296019 2.41471 -3.88395e-19)
(0.467725 2.3744 -1.12864e-19)
(0.410084 2.54577 8.43731e-20)
(0.53926 1.59156 0)
(0.614384 1.62869 0)
(0.585434 1.55293 -3.41071e-19)
(0.47823 2.09511 0)
(0.80918 0.911602 0)
(0.615371 0.999818 -4.71963e-20)
(0.613771 0.917932 -3.06467e-21)
(0.838924 0.977475 0)
(0.676432 1.10733 8.98577e-20)
(0.74108 0.889815 2.69954e-20)
(0.79086 0.977833 0)
(0.763509 0.949734 -9.0256e-20)
(0.717776 1.00729 0)
(0.66773 0.925041 0)
(1.16938 2.93715 1.41461e-19)
(1.19476 2.95132 2.93691e-19)
(1.08144 2.63702 -6.58443e-19)
(1.04017 2.66545 1.53279e-19)
(1.09758 2.91516 0)
(1.02068 2.91947 -1.7174e-19)
(0.995458 2.59592 1.34343e-19)
(0.867292 2.32974 -6.56817e-21)
(0.492575 2.1773 0)
(0.59217 1.11644 3.30769e-19)
(0.611131 1.08763 0)
(0.857747 0.191151 0)
(0.832123 0.171711 0)
(0.787578 0.19121 0)
(0.860731 0.207114 -3.0297e-19)
(0.816914 0.214017 1.88443e-19)
(0.920794 0.0559893 -1.66146e-19)
(0.906665 0.099801 0)
(0.883069 0.114181 7.57267e-20)
(0.880205 0.0690673 3.04454e-19)
(0.89002 0.0537073 -1.8913e-19)
(1.10397 3.34386 -8.62272e-19)
(1.16769 3.26405 0)
(1.12698 3.43345 -1.93012e-18)
(0.672682 3.58204 1.62038e-18)
(1.02165 3.16303 3.28535e-19)
(0.524029 0.959734 3.14916e-19)
(0.522585 0.98671 0)
(0.374748 0.578714 -8.6203e-20)
(0.382862 0.736563 4.10563e-19)
(0.490435 0.529831 -1.16549e-19)
(0.49164 0.546563 1.32973e-19)
(0.608046 0.504229 2.68354e-19)
(0.64059 0.531128 0)
(0.592638 0.615447 0)
(0.549113 0.563927 0)
(0.935902 0.563062 -5.65669e-20)
(0.861209 0.522361 -1.68583e-19)
(0.88631 0.55919 5.47085e-20)
(0.899713 0.476304 -1.2763e-19)
(0.980471 0.45924 0)
(0.972413 0.544173 -1.44743e-21)
(0.779869 0.38517 -3.97871e-19)
(0.792085 0.367663 -4.55821e-19)
(0.750494 0.404038 3.13475e-19)
(0.739085 0.377753 -3.53126e-19)
(0.826127 0.305727 -2.51046e-19)
(0.778857 0.319486 3.08866e-19)
(1.02304 0.00931286 -1.57989e-19)
(1.02186 0.00633809 3.30325e-19)
(1.02125 0.0192475 1.92936e-19)
(1.02221 0.0217936 -2.34291e-19)
(1.00823 0.0226444 0)
(1.01671 0.00134653 -3.82001e-19)
(0.0374511 1.79054 2.71266e-20)
(0.0320935 1.79335 0)
(0.0384292 1.78099 2.34551e-19)
(0.0406457 1.78413 -2.18623e-19)
(0.0293461 1.79039 7.0421e-20)
(0.0322875 1.79225 0)
(-0.0106025 1.77549 0)
(-0.00877574 1.77496 -1.21674e-20)
(-0.01009 1.77567 1.07312e-20)
(-0.00912854 1.77549 2.19606e-21)
(-0.0115353 1.77572 -2.14801e-20)
(-0.0109693 1.77638 1.28608e-20)
(0.239859 2.09218 6.22713e-19)
(0.0660829 2.07677 -6.74321e-19)
(-0.0249779 1.74228 4.06465e-19)
(-0.0139333 2.09678 -1.73182e-20)
(0.460079 1.0379 0)
(0.187519 1.32594 4.95717e-19)
(0.295146 1.14267 -4.82742e-19)
(0.020421 1.37488 -3.99103e-19)
(0.193835 1.35902 0)
(0.427907 1.0237 0)
(0.288732 2.30916 5.80581e-19)
(0.446999 1.91144 1.4563e-18)
(0.479541 2.03896 -9.30455e-19)
(0.454103 1.85165 -1.85088e-19)
(0.253846 2.05347 2.84819e-19)
(0.297436 1.79677 -7.4022e-19)
(0.88184 2.40324 3.12952e-19)
(0.906037 2.53755 0)
(0.875179 2.28802 5.16824e-19)
(1.0046 2.89504 0)
(1.00949 2.84908 0)
(0.575527 2.28843 1.92891e-19)
(1.14854 3.08412 3.35625e-19)
(1.00537 2.97385 -3.52302e-19)
(0.288086 0.990953 0)
(0.302076 0.865885 -1.75195e-19)
(0.549208 0.850712 -1.44305e-19)
(0.287563 2.11558 0)
(0.392433 2.7871 -2.2931e-19)
(0.38778 2.51056 0)
(0.683505 0.686641 -2.99099e-19)
(0.732983 0.655436 3.95885e-19)
(0.737238 0.599979 -3.74067e-19)
(0.627556 0.634249 -4.48965e-20)
(0.691171 0.5742 -1.88494e-19)
(1.0294 2.76527 -2.53703e-19)
(1.07384 2.78503 2.47198e-19)
(0.534468 2.13751 1.31673e-19)
(0.622169 1.72685 -1.3213e-19)
(0.948573 1.86474 5.14787e-20)
(1.07374 2.43572 -6.42187e-20)
(1.09899 2.39806 -1.56426e-19)
(0.686825 1.82834 -3.01371e-22)
(0.696915 1.30985 -7.31885e-20)
)
;

boundaryField
{
    wall-4
    {
        type            noSlip;
    }
    velocity-inlet-5
    {
        type            fixedValue;
        value           uniform (1 0 0);
    }
    velocity-inlet-6
    {
        type            fixedValue;
        value           uniform (0 3 0);
    }
    pressure-outlet-7
    {
        type            zeroGradient;
    }
    wall-8
    {
        type            noSlip;
    }
    frontAndBackPlanes
    {
        type            empty;
    }
}


// ************************************************************************* //
