/*--------------------------------*- C++ -*----------------------------------*\
  =========                 |
  \\      /  F ield         | OpenFOAM: The Open Source CFD Toolbox
   \\    /   O peration     | Website:  https://openfoam.org
    \\  /    A nd           | Version:  6
     \\/     M anipulation  |
\*---------------------------------------------------------------------------*/
FoamFile
{
    version     2.0;
    format      ascii;
    class       volScalarField;
    location    "8";
    object      p;
}
// * * * * * * * * * * * * * * * * * * * * * * * * * * * * * * * * * * * * * //

dimensions      [0 2 -2 0 0 0 0];

internalField   nonuniform List<scalar> 
918
(
0.199734
0.956007
0.00319295
0.197139
0.000752391
0.924568
-0.778296
0.410098
0.179798
-0.135349
0.0318915
0.171713
0.781292
0.547289
-1.4796
0.0180953
0.349649
-0.672579
0.17094
0.0111091
0.476674
0.188206
0.190435
0.181925
0.230854
0.524106
0.658749
-0.0017858
-0.00268999
-0.00352309
0.00116544
-1.90113e-05
0.011977
0.807746
0.859691
0.882707
0.152799
-0.156732
-0.639353
-0.719685
-0.679173
-0.795944
0.39356
0.396937
-0.51956
0.408828
0.420252
0.173853
0.179134
0.178918
0.183543
0.179863
0.181897
0.291852
-0.131486
-0.186902
-0.0699268
-0.0453411
0.0938886
0.0320175
0.025719
0.025061
0.028075
0.114928
0.167606
0.167234
0.173573
0.186462
0.896205
0.869892
0.895929
0.806764
0.824398
0.758888
0.732993
0.569504
0.593079
0.531169
0.52187
-1.95075
-2.9092
-0.885594
-0.620734
0.00272842
0.0220508
0.0265815
0.330681
0.33397
0.345039
0.357118
0.741226
-0.612887
-0.774077
0.174162
0.172882
0.1841
0.185414
0.178157
0.180246
0.0170037
0.0178254
0.00104895
0.0118502
0.0103093
0.461501
0.46222
0.182569
0.175693
0.196221
0.21676
0.200935
-0.0493944
0.245775
0.281667
0.35188
0.517729
0.510156
0.52004
0.632151
0.59857
0.693507
0.71427
0.0056056
-4.35646e-05
0.0253256
0.0135196
0.0209682
0.152069
0.145199
0.163303
0.157554
0.156477
-0.148465
-0.237115
-0.217777
-0.313804
-0.579023
-0.647223
-0.649639
-0.640351
-0.781192
0.522749
0.378787
0.380717
-0.510456
-0.431908
-0.585724
-0.39919
-0.464212
0.155816
0.16775
0.162517
0.169109
0.174419
0.172408
0.181175
0.179307
0.180692
0.32057
0.389998
0.253283
0.232053
-0.418054
-0.238297
-0.392192
-0.0191432
-0.010576
0.105023
0.107881
0.0791074
0.0709439
-0.00200643
0.0198065
0.00527747
0.0300456
0.0365196
0.0992532
0.0923399
0.123991
0.128322
0.161741
0.16071
0.163264
0.158501
0.68823
0.70795
0.713401
0.689311
-3.89459
-6.55918
-0.264102
-0.107325
0.00464229
0.00296594
0.0023239
0.00264877
0.00296894
0.00260209
0.044276
0.0482259
0.03458
0.0475648
0.315993
0.316359
0.748574
0.812947
0.67335
0.661562
0.167444
0.167716
0.171658
0.162457
0.0303562
0.0214968
0.0229748
0.423513
0.445384
0.442231
-0.09627
-0.180002
0.00053824
0.0232993
0.302636
0.284185
0.299818
0.414344
0.454989
0.729168
0.752187
0.738961
0.751942
0.801057
0.823304
0.787464
0.133494
0.137938
0.13603
0.169191
0.163774
0.162201
0.157944
0.160637
0.16121
-0.321768
-0.679334
-0.199491
-0.372738
-0.435363
-0.443267
0.605789
0.69556
0.355498
0.369497
0.373975
-0.334301
-0.395534
0.204709
0.184551
0.0517704
0.0834604
0.067291
0.660961
0.617834
0.667323
0.641015
0.605362
0.629209
-0.59937
-2.41611
-1.37973
0.290593
0.0875354
0.183779
0.0694341
0.0507768
0.062821
0.808215
0.84583
0.425681
0.561915
0.527497
0.487028
0.516598
0.572076
0.501295
0.537271
0.572319
0.551188
0.362893
0.00114649
0.213795
0.738167
0.802087
-0.201579
-0.286527
-0.313577
0.115319
0.151429
0.129654
0.824672
0.815705
0.8642
0.177478
0.179778
0.0112602
0.0143619
0.179747
0.176646
0.00733467
0.00597248
0.180876
-1.25649
-0.221895
0.175572
0.164304
0.178628
-0.0592195
0.27096
0.0296643
0.0930613
0.0648631
0.165318
0.122791
0.0843676
0.00170807
0.0283081
0.0211768
-0.297311
0.170373
0.166137
0.177364
0.179444
0.17878
0.005426
0.00920492
0.00676105
0.0170217
0.0127526
0.0132733
0.152761
0.158096
-0.402204
0.177652
0.178966
0.178856
0.176621
0.177381
0.177591
0.0205045
0.00924042
0.0205117
-0.076058
0.032578
0.40049
0.507713
0.318943
0.147322
-0.116726
0.321011
0.384185
0.290943
0.447935
0.356063
0.393447
-0.151662
-0.258607
-0.126944
-0.182549
0.169499
0.169227
0.160619
0.15579
0.168861
0.172038
0.174057
0.173029
0.17716
0.176223
-0.0222449
-0.0381764
-0.0787409
-0.150489
0.302402
0.380719
0.230132
0.234159
0.14989
0.0367824
0.0292498
0.0313436
0.0310681
0.067534
0.0694623
0.0783609
0.0786868
0.0554391
0.0528257
0.0672037
0.0655735
0.0714255
0.162112
0.162322
0.164695
0.17063
0.127111
0.133403
0.100633
0.120256
0.101303
0.0569439
0.0793484
0.0611987
0.0117655
0.00625439
0.00496107
0.0316859
0.0351109
0.0191605
0.015121
0.0193047
0.0154688
0.0134881
0.0243983
0.0259135
-0.255784
-0.402353
0.736273
0.597137
0.35582
0.170622
0.172736
0.172127
0.167004
0.172221
0.177201
0.175779
0.173516
0.160298
0.162271
0.159317
0.156459
-0.385435
-0.480535
-0.335691
-0.405089
-0.319388
0.285581
0.0359025
-0.0207242
-0.0436653
0.164672
0.350181
0.303842
0.449327
0.453349
-0.657432
-0.265631
-0.594592
-0.0606341
-0.00925026
0.420303
0.469469
0.491298
0.443716
0.391846
-0.320188
0.200224
-0.362462
-0.322638
-0.178196
-0.247553
0.424511
0.33835
0.34838
0.383171
0.402587
0.347627
0.331033
0.325359
0.367726
0.368875
0.163726
-0.0550865
-0.102551
-0.156559
0.325479
0.198238
0.256975
0.165928
0.163557
0.166369
0.167062
0.155245
0.159664
0.159146
0.15934
0.161509
0.169568
0.164896
0.164284
0.172003
-0.022871
-0.0149907
-0.0407898
-0.212797
-0.178672
-0.266758
-0.0995863
0.135687
0.113621
0.330827
0.39614
0.0782129
-0.0983214
-0.059457
0.0176689
0.170622
0.173764
0.119466
0.16662
0.18059
0.15099
0.207421
0.198383
0.0522089
0.0601626
0.0426573
0.0415892
0.0995082
0.119163
0.114827
0.0563386
0.0562679
0.0359714
0.0321533
0.0901383
0.0558721
0.0674924
0.0799724
0.0287751
0.0326694
0.0368234
0.047787
0.0443495
0.0489436
0.159084
0.160275
0.160357
0.177295
0.183446
0.198728
0.171103
0.146068
0.137119
0.137929
0.123558
0.131803
0.131621
0.139142
0.150593
0.157564
0.15721
0.158791
0.145676
0.144809
0.136228
0.140601
0.118212
0.0951811
0.0849473
0.0230265
0.0141422
0.0203874
0.0176599
0.015801
0.0159133
0.048744
0.0413663
0.0441781
0.04098
0.0466484
0.0229342
0.0214964
-0.12495
0.00899942
-0.386373
-0.334726
-0.448699
0.721288
0.768536
0.59394
0.50755
0.54151
0.639244
0.668423
0.414987
0.510991
0.502006
0.402309
0.731818
0.169293
0.17051
0.164153
0.162418
0.169286
-0.360498
-0.307424
-0.261748
-0.222151
-0.362676
-0.314721
-0.301123
0.268856
0.312737
0.202925
0.275661
0.29205
0.240328
0.268203
0.268911
0.0984362
0.164794
0.224475
0.168177
0.219408
0.242887
0.204336
0.237947
0.172804
0.134237
0.133981
0.0807819
0.107868
0.086483
0.0566365
0.157699
0.139891
0.14854
0.139155
0.161397
0.186208
0.182083
0.197547
0.219252
0.148735
0.111666
0.12288
0.142339
0.104766
0.115468
0.131307
-0.877511
-0.911191
-0.436588
-0.597825
-0.440083
-0.33176
-0.354797
-0.563697
-0.352691
-0.717927
-0.625011
-1.2991
0.128847
0.514507
0.387958
0.375551
0.403598
0.391649
0.396391
0.412893
0.420862
0.316978
0.333428
0.334888
0.292047
0.319724
0.364835
0.352854
0.150212
0.0272404
-0.00134651
-0.0196628
-0.131686
-0.105289
0.100263
0.027684
-0.0405297
-0.0506528
0.126896
0.0228325
0.0929271
0.123288
0.0833773
0.0189582
0.223039
0.279348
0.271928
0.259611
0.161512
0.174403
0.206843
0.249971
0.271339
0.299783
0.156608
0.162595
0.164782
0.161027
0.158185
0.161246
0.164229
0.16464
0.161142
0.16117
0.163934
0.0274368
0.0357004
-0.000137855
0.0085391
0.0315067
0.0127019
0.0695471
0.0260959
0.0502129
0.0574572
0.0333591
0.0104104
0.0199065
0.0370962
0.174954
0.203872
0.192762
0.145682
0.250979
0.370513
0.41904
0.360514
0.216122
0.239455
0.294253
0.0982212
0.0960012
0.0866764
0.10014
0.10526
0.0442574
0.0412993
0.0439575
0.0472728
0.0497151
0.0388982
0.029348
0.0300292
0.0328442
0.0333991
0.0336535
0.149969
0.14135
0.137465
0.130384
0.131071
0.146915
0.149079
0.152321
0.156815
0.157934
0.149699
0.156066
0.157735
0.0363779
0.0275383
0.0314201
0.0306409
0.0303054
0.024467
0.0248694
0.213794
0.102151
0.226598
-0.00487442
-0.225772
-0.112628
0.240557
0.298187
0.0531452
0.600892
0.503364
0.266839
0.337185
0.561426
0.396426
0.653133
0.537363
0.7295
0.68982
0.758469
0.653983
-0.331724
-0.0493164
-0.000480969
-0.526631
-0.272542
-0.0852203
-0.191884
-0.134477
-0.187327
-0.0793167
-0.484332
-0.555534
-0.776202
-0.518333
-0.402848
-0.309173
-0.431312
-0.481912
-0.443903
-0.811643
-0.55555
0.273447
0.290183
0.30842
0.280674
0.305388
0.225484
0.221357
0.238426
0.246197
0.234183
-0.949326
-0.557188
-1.74761
-1.20259
-0.651972
0.242798
0.16662
0.459713
0.332135
0.40837
0.386689
0.33663
0.296017
0.302318
0.344417
0.00853288
0.122442
0.0839698
0.115802
0.0524259
-0.0193808
0.258969
0.243523
0.288979
0.310549
0.267556
0.307244
0.155458
0.155443
0.153399
0.152951
0.149915
0.148409
0.11093
0.0810705
0.129516
0.110742
0.0760818
0.060645
0.0429917
0.0415925
0.0380649
0.0365965
0.0387806
0.0417663
-0.110329
0.051756
-0.0477226
0.0761498
-0.321364
-0.211266
-0.289983
-0.151437
-0.136222
-0.299596
0.475757
0.663298
0.586232
0.645657
0.489472
0.538986
-0.0908726
-0.401569
-0.350083
-0.181799
0.0557639
-0.159212
-0.42523
-0.462911
0.498818
0.505959
0.376252
0.18578
0.0361613
0.259631
0.187685
0.136339
0.181351
0.24846
0.250564
-0.342841
-0.406069
-0.0906244
0.119222
-0.619724
-0.318291
-0.415956
-0.0968097
-0.274532
)
;

boundaryField
{
    wall-4
    {
        type            zeroGradient;
    }
    velocity-inlet-5
    {
        type            zeroGradient;
    }
    velocity-inlet-6
    {
        type            zeroGradient;
    }
    pressure-outlet-7
    {
        type            fixedValue;
        value           uniform 0;
    }
    wall-8
    {
        type            zeroGradient;
    }
    frontAndBackPlanes
    {
        type            empty;
    }
}


// ************************************************************************* //
