/*--------------------------------*- C++ -*----------------------------------*\
  =========                 |
  \\      /  F ield         | OpenFOAM: The Open Source CFD Toolbox
   \\    /   O peration     | Website:  https://openfoam.org
    \\  /    A nd           | Version:  6
     \\/     M anipulation  |
\*---------------------------------------------------------------------------*/
FoamFile
{
    version     2.0;
    format      ascii;
    class       surfaceScalarField;
    location    "8";
    object      phi;
}
// * * * * * * * * * * * * * * * * * * * * * * * * * * * * * * * * * * * * * //

dimensions      [0 3 -1 0 0 0 0];

internalField   nonuniform List<scalar> 
1300
(
3.75095
5.62643
-6.37339
3.75095
-6.23398
5.62643
-4.64806
4.64806
-1.56032
1.56032
1.87692
1.87404
-5.13618
5.13618
-5.25025
5.25025
-2.94059
2.94059
-5.24757
5.24757
-5.06983
5.06983
4.70374
-4.70374
-5.09596
5.09596
-2.0296
2.0296
-5.59264
5.59264
3.18759
-3.18759
-5.3269
5.3269
-0.653903
0.653903
-0.54863
4.29958
3.20232
3.20232
-2.72609
2.72609
-4.86323
4.86323
6.22177
-6.22177
9.64839
-9.64839
-3.275
-3.35386
1.34491
-8.09696
-4.88908
-4.88908
-8.44102
8.44102
-2.81459
2.81184
3.04656
-3.04656
-1.27096
1.27096
-4.50076
-0.1473
-4.50076
4.81988
-0.171819
4.81988
-1.7182
0.157889
-1.7182
4.06696
-4.06696
1.38232
0.177993
1.38232
3.05868
-3.05868
-1.87531
3.75222
1.87565
-1.8676
6.16719
-1.88335
3.75739
-4.79922
4.79922
-5.2938
0.157613
-5.2938
5.06853
0.0676531
5.06853
-5.28508
5.28508
-5.21019
-0.0400618
-5.21019
5.28858
-0.0383287
5.28858
3.1449
-3.1449
-2.98407
0.0434818
-2.98407
2.88674
0.0538552
2.88674
0.353505
5.27292
-5.97993
8.79177
-5.27292
0.0253556
5.20937
0.0382011
5.20937
-5.10429
0.0344572
-5.10429
5.01196
0.0578781
5.01196
4.80697
-0.103236
4.80697
-4.8147
0.110959
-4.8147
-3.30041
-3.31304
-5.17569
0.0797375
-5.17569
-2.05538
0.0257814
-2.05538
2.02256
0.00703167
2.02256
-3.80863
3.80863
-5.59065
-0.00199407
-5.59065
3.16443
0.0231636
3.16443
1.86585
1.88511
5.6168
-5.6168
2.42921
-5.32606
-0.000838793
-5.32606
-5.34933
-4.29907
5.34933
-0.0224314
-0.94531
0.291407
-0.94531
3.17001
0.0323083
3.17001
2.81171
0.0750253
-2.81171
0.0856218
3.56938
-3.56938
2.10012
0.625968
2.10012
-5.56173
5.56173
4.95823
0.0537217
-4.95823
0.0950012
6.15849
0.0632792
6.15849
-6.20497
-0.0167996
-6.20497
3.34944
-6.7033
-3.29646
4.99351
0.102447
-4.99351
0.104432
3.07463
-0.0280692
3.07463
-3.0137
3.0137
-3.05397
0.00740931
-3.05397
-2.00072
0.729766
-2.00072
0.680166
0.59079
0.680166
-4.32889
-0.17187
-4.32889
-5.21606
-0.374593
5.21606
-0.396177
1.58453
-1.58453
-1.84423
0.126029
-1.84423
-4.12737
-0.201518
4.12737
-0.0604117
-4.06415
-0.00280952
-4.06415
-3.04157
-0.0124065
3.04157
0.0171173
3.1169
0.053112
-3.1169
0.0582183
-1.87298
3.75809
-1.87798
3.75362
-4.65038
-0.148835
-4.65038
4.97086
-0.171637
4.97086
5.47332
0.119326
-5.47332
0.179521
5.09223
-0.0237007
5.09223
-5.28481
-0.000273797
-5.28481
5.30419
-0.0191057
5.30419
5.16613
-0.0738945
-5.16613
-0.044063
5.31299
-0.0244106
5.31299
3.19935
-0.0544429
3.19935
-3.11468
-0.0302271
-3.11468
3.01131
-3.01131
2.99358
0.0177325
-2.99358
0.00950646
-11.1279
11.1111
-0.0365635
-11.0914
5.1728
5.1728
4.29564
0.511333
4.29564
-5.01582
0.201124
-5.01582
3.31432
-6.61079
3.25885
-6.55926
3.36416
-11.4611
3.32837
-6.64141
5.25854
-5.25854
5.22004
0.0385055
-5.22004
0.0443463
-2.05191
-0.0034686
-2.05191
-3.58393
-0.224698
-3.58393
4.09704
-0.288407
4.09704
-3.02916
3.02916
-3.08482
0.0556564
3.08482
0.079611
5.31318
-0.000193473
-5.31318
-0.0128733
1.172
0.21032
-1.172
0.226692
3.7445
-0.175114
3.7445
-3.35114
-0.218246
-3.35114
-2.06188
0.00997653
2.06188
0.0382366
-5.81008
0.248359
-5.81008
-11.1842
0.0927916
-11.146
-6.11218
-6.11218
2.32884
11.1206
-3.10105
-0.0136305
3.10105
-0.0264135
3.00355
0.0256159
-3.00355
-0.0101496
-3.01826
0.0069482
3.01826
-0.00456533
-2.52592
0.525195
-2.52592
-0.522018
0.522018
-0.390993
-0.131025
0.390993
0.289173
2.11223
-0.527706
2.11223
1.97261
0.0499495
-1.97261
0.128381
-4.01183
-0.0523239
-4.01183
5.16636
-0.195508
5.16636
-3.24003
-0.111107
3.24003
-0.040684
-0.0348105
11.146
-5.13799
0.0337033
5.13799
-11.2092
11.2429
-3.27022
0.744305
3.27022
1.02542
5.28637
0.275355
-5.28637
0.27055
5.2908
0.0133889
-5.2908
0.032255
-3.33959
-0.244342
-3.33959
-4.39459
-0.255794
4.39459
-0.297554
-11.4808
-0.20293
11.6837
-11.4229
6.01301
0.145476
-6.01301
11.3884
-1.0122
-0.572328
1.0122
-0.490182
2.51979
-0.407553
2.51979
3.94133
-0.196831
-3.94133
-0.0704978
-5.27961
-0.00519883
5.27961
-0.113246
-2.96452
-0.375069
2.96452
-0.444732
-4.28452
4.31683
1.88267
-3.33272
-3.37058
-7.63179
1.86596
1.89212
4.29517
-7.06006
-4.40106
-6.95563
7.24255
-6.972
-9.32722
9.22398
7.43588
-7.43869
-5.72325
5.80286
6.35671
-6.3396
1.86026
1.89196
10.6672
-10.5096
-10.4207
10.2719
10.2411
-10.2811
10.6959
-10.6962
-12.3301
12.3435
-5.72112
5.7646
-6.62732
6.59709
-6.7589
6.71822
-3.35978
-3.19948
9.00279
-8.92306
11.7425
-11.7433
-10.8836
10.8816
3.36104
0.955793
3.41415
-1.88988
3.75014
-1.86751
3.75018
3.27196
-6.63174
3.33883
-6.70941
6.04876
5.69374
-6.02633
-1.60545
-5.89019
5.86212
-5.83335
5.82879
8.20199
-8.34929
-1.88299
3.77495
-1.87064
3.76276
-3.38148
-2.34177
3.35832
0.936855
5.56385
3.43894
-5.6663
-1.28933
-7.55418
7.35735
-7.82637
7.60813
-0.46373
5.84784
-5.38411
4.3995
-1.62851
7.47636
5.61404
5.81516
5.86815
-5.59279
1.10386
-6.48797
-6.39297
-2.66624
2.79227
2.62862
-2.45062
5.80027
1.63561
5.73986
-5.50135
-1.93734
-5.55367
3.80636
1.9965
3.86202
4.03398
2.32273
4.02158
3.05937
-3.02997
-0.0293974
-3.10282
6.16219
0.744979
-5.44459
-4.50774
6.90366
3.76358
6.97132
-7.15747
-3.35215
-6.97795
-6.30705
-4.11368
-6.56284
6.64652
3.62538
6.47488
-7.93227
7.81903
6.81294
3.42812
6.77461
-6.81474
-3.46638
-6.85881
10.4439
-2.69375
-7.75019
-6.90636
-5.4237
6.92547
3.77048
7.4891
4.85435
7.52135
3.58142
6.86251
-7.3519
1.9282
-3.83604
-1.88508
-3.82653
3.71716
2.04744
3.77101
-4.16424
-2.46308
-4.17787
-4.19231
-2.56659
4.24675
2.35034
-4.26962
-3.55676
4.38072
2.3375
2.98275
-7.3838
3.65866
-6.85815
-6.2507
-2.67236
-6.20635
4.03627
2.67829
-6.71456
-2.59547
10.9103
-5.21658
9.30487
-7.29853
-4.44482
-7.3114
-7.60349
-3.28008
-7.97808
-5.8769
5.63256
-5.95916
5.67075
11.0347
-5.35937
-5.67536
-3.88216
-2.45743
3.82395
-0.409797
-3.78126
3.75187
-0.0311254
3.71905
4.67484
4.26505
-3.87326
-1.9601
-3.88341
3.83449
1.9943
3.84143
6.53105
1.67093
6.35923
-5.97046
-2.37883
-6.14233
9.51003
-8.78027
2.94262
-2.93264
5.06332
2.54481
-4.88821
-2.66598
5.94014
-2.91835
-3.0218
-12.3885
10.7358
1.65274
-4.91217
-0.51267
0.141233
-5.57048
-3.75674
5.45952
0.355639
11.0914
7.33469
-5.51508
5.76343
6.1686
6.22233
-0.170643
6.01113
-5.26682
5.52625
-2.46224
-3.06401
5.06712
-5.26863
-1.07521
-5.18268
4.10747
0.471223
1.88541
-1.594
-2.18568
-0.480567
-2.0573
1.61015
1.01847
1.82047
0.99092
1.80135
-2.8397
0.491382
2.34832
-1.84878
-1.95924
-3.54553
-1.03961
4.58514
5.37247
1.98488
-5.30197
-0.251697
2.81851
-2.81148
-0.808117
-2.73742
1.99087
-2.79898
-3.40012
-1.8544
5.25453
-3.37163
-0.511778
3.34601
0.516003
-3.76815
-2.12203
3.76074
0.260834
-3.05661
6.11388
-3.05727
-5.01671
2.56267
3.59951
4.55917
-4.85917
2.48469
2.37448
-1.25965
5.98783
0.983488
5.96413
-9.20655
5.8544
7.57382
3.30775
-7.69315
0.715198
-8.49135
9.61593
-8.19903
-1.4169
5.07991
4.53602
5.31121
5.72353
-4.03368
9.34489
-0.792449
-7.40658
9.2838
-5.97605
5.22687
-11.2029
-10.9504
3.54382
-6.9097
8.52696
-1.61726
-2.47649
-5.45578
9.3862
-0.823588
-8.56261
5.65129
-5.32953
-5.26754
10.5971
-8.02328
8.73392
-2.64416
-6.08976
-6.66836
-4.02786
6.67356
1.14547
-9.87795
11.8062
-3.01544
5.90981
0.864807
5.8854
3.91544
-6.02106
2.10562
4.10784
-6.752
2.52346
-8.54452
-4.79298
9.41405
-4.62107
-7.46534
-6.6578
-0.807542
2.02293
9.78323
-6.87728
5.30429
1.57298
3.32044
0.520997
-3.33817
-0.488362
0.335786
4.41547
-4.75126
4.1068
4.18183
3.23327
1.1822
3.83107
2.03105
-3.80465
-0.373218
-4.01032
1.44373
-1.65998
-3.33341
4.77714
-3.82234
0.488925
-2.62649
-3.45163
6.07812
-4.51157
3.04784
3.06604
5.04214
-4.7422
1.29057
-2.33615
-2.40605
2.53177
-4.19175
1.80286
2.97428
4.14036
0.583601
4.74472
4.66933
-7.42301
0.56486
8.10827
-6.81894
1.66184
5.85951
-6.96614
0.308339
-5.89802
1.13791
-6.35449
-5.57665
5.25917
-8.53925
-5.94375
6.66893
-0.3097
-6.27276
-1.70533
-3.89583
-1.98107
-4.2709
-1.81241
-4.14674
-5.8461
-1.26111
-4.58498
4.37144
-4.44543
-2.11741
4.74298
0.927765
-5.99886
5.42654
-5.04532
4.63777
0.0602192
3.69165
4.32526
1.86783
-2.43199
4.29983
-4.11899
5.78992
-6.5452
2.42621
3.78439
-6.16322
-2.7608
4.99449
4.51554
5.58528
7.95899
-13.0529
5.09393
-11.0624
10.0289
1.03354
-15.821
4.75852
-7.86198
2.7366
0.206019
2.73313
0.654318
2.31394
-2.96825
-2.27833
-2.24009
-2.14233
-3.22338
5.36571
1.02175
-3.18259
2.16085
-3.3606
4.38235
0.0223711
-3.20496
5.14374
-2.82981
5.34976
-3.33823
2.01153
3.11034
5.34729
-2.23695
4.20937
-1.66456
1.67999
-3.91694
-1.54339
-2.95957
5.00701
-3.11855
3.60748
-0.255748
3.86323
-3.84306
0.92471
-0.609784
3.57204
3.65766
4.20713
-3.02493
2.73161
-4.39617
-1.18534
-3.81257
-0.838293
-0.787778
-4.40436
5.19214
6.80215
-7.58993
-5.76882
10.3428
-4.57401
8.01276
-5.5095
-2.50326
-4.42547
-4.3548
3.90027
2.11085
10.1236
0.209817
-5.71932
-5.057
-4.03159
3.1161
2.41015
-2.03199
3.68473
1.89075
-0.00534701
0.59307
1.2274
1.83523
-1.24216
0.139906
1.69532
-1.45409
2.12559
0.692918
-2.17554
0.118245
-1.35059
3.34146
0.997727
-2.0162
0.774035
1.06156
-3.5238
4.69088
-2.49367
-2.19721
5.75245
0.958624
-3.4523
4.22405
-3.75283
2.16922
-3.20883
-1.28308
-5.03591
-3.4003
-2.32709
4.48794
-3.03862
5.0235
1.08781
-4.7718
5.85961
-3.32586
1.47146
-3.01545
3.70837
-1.05649
-1.95897
2.65614
2.59839
-2.82588
0.0884679
-0.169743
2.19251
-2.36225
-0.606478
-2.45526
-4.56788
4.82872
-2.05467
4.53936
2.24516
-1.92117
6.46053
1.81747
-3.73864
-3.19924
-3.71102
-1.36416
3.19501
-1.00559
-5.85321
-7.09535
5.92711
0.0370186
-9.17068
10.3034
-1.13271
-5.4071
-0.447299
5.52721
-7.50647
0.75447
-4.98301
5.32037
6.30386
6.34088
-8.47834
-0.0842717
-4.85296
1.31552
-6.16848
5.85154
-3.07669
6.62051
-7.19596
5.07855
-6.2682
5.20361
-0.964866
5.58835
-3.48274
2.16183
-6.18969
-5.04422
6.9638
-3.53568
7.8286
-4.04595
11.8746
-7.06139
6.90298
4.97158
-1.37203
-5.93937
-6.84881
5.47678
0.0541711
5.93957
4.83916
-2.80811
4.46595
2.18888
-4.52503
-2.00287
-6.36787
1.84284
-3.30184
-1.84427
3.68711
3.19787
3.71887
1.28106
-3.23051
6.597
-7.40454
-1.97593
-3.60072
6.77077
-1.29399
4.02854
-7.62925
-2.32596
6.38399
-2.32166
-4.06233
-1.02462
-4.91913
3.79293
-8.71206
4.74632
-6.45165
1.94421
-9.80619
-4.05465
-4.54483
-1.62435
-3.42098
-6.23637
4.61203
-1.47785
3.94868
-7.88623
5.56456
-2.14268
6.7547
-3.42068
-0.850218
3.86541
0.772359
7.52706
1.49703
-4.25783
-2.55496
4.55794
-2.00298
0.561142
-2.90734
1.65061
2.36756
3.38488
-6.47503
0.311809
-3.94602
-3.7486
8.26414
6.59423
13.3964
0.343453
9.79353
-1.52939
10.137
4.05589
4.34506
-2.64269
7.73663
2.54945
4.97566
-0.835718
2.84725
1.89741
1.9232
0.888283
2.21295
1.44471
3.13766
0.169408
-2.07068
4.60593
-8.63752
-1.11339
-8.12618
1.0978
5.59868
-4.50088
3.66583
-1.25568
1.66284
0.300164
-1.90576
1.60559
-2.76385
-1.9111
-0.215779
-1.54075
2.31479
1.80071
-2.09901
-0.664838
0.268131
-3.66843
2.9407
-2.85223
-0.253841
5.60577
-2.56203
0.199778
-1.09057
-2.25548
-2.73605
2.6178
6.13219
0.328341
3.07492
5.15706
3.03503
0.226914
4.42482
-6.04207
-4.1197
-6.12634
-0.274806
5.25241
2.03505
7.74817
7.00663
5.71264
-1.91661
-9.32116
6.78167
0.95496
7.8152
-3.75287
-4.95918
4.90942
0.880504
-4.59972
-1.85194
-6.81112
-5.85616
-0.67165
6.23622
-6.85541
6.0052
4.02413
0.560856
-3.89475
-0.650082
4.02578
0.319284
10.4563
-0.909952
-6.86845
7.7784
-4.68873
3.57534
1.11632
2.5684
2.72191
1.46624
-5.40222
-9.9031
-1.91718
-1.60662
-4.11439
0.470751
-2.27146
6.28682
-2.71149
3.78356
5.06692
6.72976
-2.15331
-5.43662
6.72731
-2.94375
3.78601
)
;

boundaryField
{
    wall-4
    {
        type            calculated;
        value           uniform 0;
    }
    velocity-inlet-5
    {
        type            calculated;
        value           uniform -3.75095;
    }
    velocity-inlet-6
    {
        type            calculated;
        value           uniform -5.62643;
    }
    pressure-outlet-7
    {
        type            calculated;
        value           nonuniform List<scalar> 8(6.37339 6.23398 6.62887 6.75206 6.61346 6.6459 6.57317 6.69252);
    }
    wall-8
    {
        type            calculated;
        value           uniform 0;
    }
    frontAndBackPlanes
    {
        type            empty;
        value           nonuniform 0();
    }
}


// ************************************************************************* //
