/*--------------------------------*- C++ -*----------------------------------*\
  =========                 |
  \\      /  F ield         | OpenFOAM: The Open Source CFD Toolbox
   \\    /   O peration     | Website:  https://openfoam.org
    \\  /    A nd           | Version:  6
     \\/     M anipulation  |
\*---------------------------------------------------------------------------*/
FoamFile
{
    version     2.0;
    format      ascii;
    class       volVectorField;
    location    "8";
    object      U;
}
// * * * * * * * * * * * * * * * * * * * * * * * * * * * * * * * * * * * * * //

dimensions      [0 1 -1 0 0 0 0];

internalField   nonuniform List<vector> 
918
(
(0.985056 -0.0018033 0)
(0.00533345 2.96625 0)
(0.000775065 1.69502 0)
(0.979337 0.00285961 0)
(-0.00473215 1.66083 -6.62217e-22)
(-0.007059 2.94857 -1.96684e-18)
(0.913039 1.18814 6.88593e-19)
(0.522302 0.275855 -8.93902e-21)
(1.00004 -0.000148219 0)
(0.0697501 1.53041 0)
(-0.0123652 1.56788 0)
(0.879158 0.00147531 0)
(0.0101419 2.93131 0)
(0.000975832 2.79526 0)
(0.00154199 3.1776 1.10627e-18)
(0.000280236 1.60564 -1.85594e-20)
(0.639201 0.126794 5.38326e-19)
(0.277435 1.76722 5.41129e-19)
(0.975527 0.0207347 0)
(0.0016469 1.59831 0)
(0.23752 0.313671 -4.67849e-19)
(1.00087 -0.00414625 0)
(1.00044 -0.0077982 0)
(0.969847 -0.00426328 0)
(0.821918 -0.029926 0)
(0.0220466 2.63935 0)
(-0.0120713 2.91176 6.7924e-19)
(-0.0109973 1.70413 0)
(-0.0035188 1.76923 0)
(-0.00561747 1.72269 0)
(-0.00365316 1.80089 0)
(-0.00368754 1.68183 5.24696e-22)
(0.000828964 1.60691 0)
(-0.0219447 2.98758 -6.91238e-23)
(-0.0165453 3.0055 1.52925e-18)
(0.00226861 3.00063 0)
(0.915343 0.001035 0)
(0.179895 0.734468 -9.70762e-20)
(0.848798 1.25024 -9.31103e-19)
(1.00147 1.03454 9.15211e-19)
(0.728239 1.39525 -1.54446e-19)
(0.798227 1.32859 8.70701e-19)
(0.574022 0.330738 8.72178e-21)
(0.575159 0.225166 0)
(1.20051 0.555551 0)
(0.517762 0.339648 4.0438e-20)
(0.498618 0.264301 -4.19571e-20)
(0.921438 -0.0013384 0)
(0.999292 -6.28998e-05 0)
(0.999944 -1.77244e-06 0)
(1.00183 -0.0077977 0)
(1.00158 -0.00240363 0)
(1.00029 -0.000789305 0)
(0.0223699 1.54579 -5.57977e-19)
(0.0542021 1.65789 0)
(0.117928 1.55291 0)
(0.00909117 1.6425 0)
(0.0176989 1.47987 0)
(-0.00230852 1.60494 0)
(-0.0166129 1.65022 0)
(-0.0111203 1.55528 0)
(-0.0109209 1.67237 0)
(-0.0047864 1.58258 0)
(0.942177 0.0167422 0)
(0.937707 0.00656383 0)
(0.893277 -0.00562953 0)
(0.926965 0.0166843 0)
(0.857874 0.0237305 0)
(0.0139841 3.00014 7.20982e-19)
(0.0112612 3.00571 0)
(0.00635197 3.0039 0)
(0.0120836 2.99694 8.0524e-24)
(0.00811736 2.95876 -1.07156e-18)
(0.0124455 2.98289 0)
(0.00949709 2.90406 0)
(0.0215726 2.93062 1.47677e-24)
(0.00301691 2.8238 0)
(0.0270565 2.91813 0)
(-0.0035845 2.74469 0)
(0.315006 3.5882 0)
(-0.12423 3.66825 0)
(0.155509 3.27097 -1.02959e-18)
(-0.00967221 3.00466 0)
(-0.00143026 1.76179 0)
(-0.00284181 1.68718 1.83116e-20)
(-0.00493575 1.6172 -2.77235e-20)
(0.700564 0.168367 -1.84496e-19)
(0.669041 0.0727023 -1.75818e-19)
(0.684211 0.192955 -5.54719e-19)
(0.647629 0.137891 -3.72295e-19)
(0.24854 1.3062 0)
(0.305845 1.82012 -5.79604e-19)
(0.496083 1.73487 9.67516e-19)
(0.992147 0.0145354 0)
(0.952716 0.0228645 0)
(1.00047 0.00076274 0)
(1.00179 0.0105573 0)
(1.00295 0.0166366 -9.07362e-19)
(0.989184 0.00791753 6.8822e-19)
(-0.00307054 1.67696 0)
(0.00420154 1.60406 0)
(-0.00662963 1.72949 0)
(-0.00613014 1.68705 0)
(-0.00208802 1.60199 0)
(0.319857 0.327147 1.48242e-19)
(0.342761 0.301611 0)
(0.989611 -0.00176967 0)
(0.962666 0.00523681 0)
(0.893281 0.0311823 0)
(0.877756 0.0124427 0)
(0.838125 0.000541802 0)
(1.06642 0.0134634 0)
(0.845511 0.0127573 0)
(0.762289 0.012739 6.96677e-19)
(-0.038472 2.8607 3.85931e-19)
(0.0362975 2.91238 0)
(0.0466297 2.88979 0)
(-0.000284222 2.70111 0)
(-0.00829102 2.98665 6.29478e-19)
(-0.0139576 2.89558 0)
(-0.010902 2.98991 -1.97901e-18)
(-0.0132067 2.92898 6.80076e-19)
(-0.00220623 1.78847 0)
(0.00364663 1.77331 0)
(0.00326811 1.68718 -6.82095e-22)
(0.00594696 1.67907 0)
(0.00553367 1.5974 0)
(0.961694 0.00829378 0)
(0.921483 0.011708 0)
(0.903506 -0.0144864 0)
(0.962657 -0.0039014 0)
(0.913807 -0.00900299 0)
(0.283888 1.01014 1.19706e-19)
(0.421115 1.16301 0)
(0.101347 0.535546 -1.69406e-20)
(0.213364 0.220418 0)
(0.950164 1.09083 -2.66991e-19)
(1.07398 0.859892 5.59536e-19)
(0.434057 1.73172 0)
(0.57181 1.56462 0)
(0.662965 1.53518 0)
(0.386041 0.414845 -2.63716e-19)
(0.615586 0.289197 0)
(0.597519 0.213147 1.09038e-19)
(1.03095 0.923557 0)
(1.11706 0.741599 0)
(1.1402 0.687008 -5.14168e-19)
(1.20313 0.586532 0)
(1.25571 0.415055 5.59395e-20)
(0.963616 0.00179375 0)
(0.956252 -0.00124105 0)
(0.91378 0.00513776 0)
(0.988344 -1.11366e-05 0)
(0.96615 0.000397772 0)
(0.94445 0.00220036 0)
(1.00175 0.00275268 0)
(1.00016 0.000217282 0)
(0.99987 0.000486425 0)
(0.0100615 1.61061 3.01427e-19)
(0.0556426 1.53036 0)
(0.00820148 1.6339 4.99561e-19)
(0.018693 1.57063 -4.32594e-19)
(0.146199 1.78609 -4.54491e-19)
(0.0511798 1.70682 0)
(0.216852 1.66214 0)
(-0.0130086 1.62382 0)
(-0.00481719 1.50002 0)
(-0.00660136 1.67998 -1.37247e-21)
(-0.00940592 1.61801 0)
(-0.00340256 1.68752 -6.4909e-20)
(0.00104233 1.61564 1.25341e-19)
(-0.0175579 1.6425 0)
(-0.0117888 1.65256 0)
(-0.00252727 1.53987 0)
(-0.00578312 1.67959 0)
(0.00684978 1.58473 0)
(1.00316 0.0136687 0)
(0.963938 -0.00242035 0)
(0.982514 0.0131614 0)
(0.938483 0.00957308 0)
(0.898056 0.0033054 0)
(0.950577 0.0117588 0)
(0.947557 -0.000846222 0)
(0.896486 0.000572699 0)
(0.0115714 3.06368 -6.37181e-21)
(0.014315 3.05891 0)
(0.0129186 2.96973 0)
(0.00814231 2.87573 0)
(0.914081 3.99483 0)
(1.21133 3.39429 1.01095e-18)
(0.075452 3.08877 0)
(-0.025455 2.91651 0)
(0.00927899 1.75856 0)
(0.00876384 1.74796 0)
(0.004805 1.75178 0)
(-0.00279385 1.79132 4.44777e-21)
(0.00127919 1.77447 0)
(-0.00625804 1.78348 0)
(-0.00249529 1.60452 1.09759e-21)
(0.00112414 1.68368 4.02531e-20)
(-0.00208515 1.68371 2.8414e-20)
(0.00345561 1.60072 0)
(0.726932 0.116608 2.66613e-19)
(0.680539 0.0371659 -2.58808e-19)
(0.194301 1.39859 0)
(0.312081 1.23695 -2.52876e-19)
(0.152068 1.4449 -7.3765e-19)
(0.184148 1.3623 7.36027e-19)
(0.896799 0.0101487 0)
(0.970268 0.0166535 0)
(0.979368 0.0265512 0)
(0.930513 0.0274535 0)
(0.00800265 1.67886 0)
(0.000283111 1.67888 0)
(0.00855227 1.59505 0)
(0.473361 0.356826 3.73125e-19)
(0.418391 0.351398 -4.59187e-19)
(0.436467 0.264655 0)
(1.18568 0.083025 -7.6615e-21)
(1.1704 0.0284574 0)
(1.0911 0.0476852 0)
(1.00672 0.00587518 0)
(0.744622 0.0956259 0)
(0.777146 0.0845392 -1.11481e-18)
(0.707273 0.0479548 4.25389e-19)
(0.0103775 2.97889 4.71474e-19)
(-0.0316351 2.86229 4.75643e-20)
(0.00921437 3.05136 -1.36484e-20)
(0.0150799 3.04424 5.20674e-19)
(-0.0124153 2.99882 2.26216e-20)
(-0.0125388 2.95157 -9.20592e-23)
(-0.0153622 3.01335 -4.33523e-19)
(0.0135566 3.02737 3.01614e-19)
(0.00745544 3.03407 -4.82529e-19)
(0.983358 0.00778549 0)
(0.978585 0.00794987 0)
(0.929916 0.00593984 0)
(0.953344 0.0120006 0)
(0.955073 -0.00779126 0)
(0.898038 -0.00331264 0)
(0.955304 0.00162285 0)
(0.951873 -0.00733088 0)
(0.903611 -0.0110285 0)
(0.602832 1.4243 2.92407e-19)
(0.660053 1.55566 0)
(0.13562 -0.0942734 -1.4128e-20)
(0.356657 0.372364 -4.07033e-19)
(0.24898 0.346476 2.84137e-19)
(0.136998 -0.0740052 -5.80073e-19)
(0.396832 0.877974 1.38978e-18)
(0.412849 0.686925 3.45938e-19)
(0.678796 0.235773 4.05656e-19)
(0.636977 0.27648 9.94229e-20)
(0.622005 0.190387 2.08688e-19)
(1.24912 0.443883 3.3723e-19)
(1.27904 0.2512 3.52068e-19)
(0.0146008 1.66252 2.02142e-19)
(0.0168042 1.61685 0)
(1.03674 0.0221449 0)
(1.00878 0.00724456 0)
(0.975221 -0.00222035 0)
(0.0121001 3.07272 0)
(0.0175272 2.94299 8.62332e-19)
(0.0145762 2.95572 0)
(0.00547015 2.84964 -8.54861e-19)
(0.00899407 3.0894 2.06023e-19)
(0.0117852 3.08357 0)
(0.698942 1.85401 -2.31761e-19)
(1.26129 2.66184 7.80589e-19)
(0.697993 2.03272 -1.61079e-18)
(0.0220232 2.97987 -3.57241e-19)
(0.0383529 3.0036 0)
(-0.037698 2.87795 0)
(-0.000245661 1.67822 -3.27597e-21)
(-0.00512979 1.68591 -9.08225e-20)
(-0.00178418 1.60774 -8.06322e-21)
(0.259019 1.34034 8.07014e-19)
(0.36033 1.19178 -5.42781e-19)
(0.0451724 1.58241 4.87873e-19)
(0.092697 1.51376 -6.00927e-19)
(0.117691 1.46323 7.36619e-20)
(0.0035661 3.11998 -1.21506e-18)
(0.0168469 3.11967 1.31359e-18)
(-0.00473194 2.98132 5.58163e-19)
(-0.000914569 2.97594 -5.05372e-19)
(-0.0172791 2.87867 -5.68499e-19)
(0.01162 3.10006 -1.50936e-18)
(0.00452503 3.10598 1.48337e-18)
(0.487834 0.721473 0)
(0.476695 0.505104 -1.29347e-19)
(0.279342 0.0815992 1.05652e-19)
(0.409321 1.01785 9.94557e-19)
(0.424183 0.88069 -1.52996e-18)
(1.25609 0.179272 -6.68409e-20)
(1.27991 0.305102 0)
(1.25799 0.131919 1.38829e-19)
(-0.0131208 1.70067 -1.57898e-21)
(-2.9971e-05 1.6893 0)
(-0.000309588 1.63776 0)
(0.325638 1.25325 -2.7867e-19)
(0.372189 1.12657 -6.86156e-19)
(0.402271 1.05744 1.2233e-18)
(1.00666 -0.0179031 0)
(1.00141 -0.00571361 1.67981e-19)
(-0.005795 1.78811 0)
(-0.0108431 1.79547 0)
(1.00221 0.000582657 -1.13278e-21)
(1.00723 0.00450121 3.39496e-19)
(-0.000453887 1.79174 -5.67692e-21)
(-0.004261 1.79333 0)
(0.0509462 3.17893 1.6511e-19)
(0.384135 3.5432 0)
(1.10572 0.711276 8.16097e-20)
(1.00337 0.00518692 -3.7757e-21)
(1.001 -0.00661235 0)
(1.00121 -0.00450665 1.51493e-22)
(0.0429053 1.83816 0)
(0.0271547 1.74485 0)
(-0.0040332 1.79997 0)
(0.00366595 1.78211 9.07426e-20)
(-0.00123382 1.78565 4.6401e-20)
(0.999279 0.0191833 1.34637e-21)
(1.04196 0.00170844 0)
(1.07001 0.0298481 0)
(0.0160068 1.75361 0)
(0.00834062 1.77788 0)
(-0.0045017 1.79081 0)
(0.14221 1.86767 -2.29069e-19)
(1.0126 -0.0228766 0)
(1.00717 -0.0260219 0)
(1.00632 -0.00191517 2.11262e-19)
(0.999008 -0.00373284 -2.56826e-19)
(1.00214 -0.00243682 0)
(0.0100193 1.75789 0)
(-0.00369516 1.78718 0)
(0.00797068 1.76668 0)
(-0.00310955 1.7939 0)
(-0.00531035 1.79138 0)
(-0.00508827 1.79395 0)
(1.02263 0.000391525 0)
(1.01754 0.00654258 -4.93535e-22)
(0.666151 1.18811 4.55869e-19)
(1.00067 -0.00173931 -2.10754e-19)
(1.00088 0.00290915 2.52091e-19)
(1.00118 0.00259978 0)
(1.00432 0.00593013 2.07494e-19)
(1.00667 0.00230995 -2.59237e-19)
(0.996858 -0.00457422 0)
(0.00858927 1.78475 0)
(-0.00163495 1.79326 1.77189e-20)
(-0.00290789 1.78431 -1.31247e-20)
(1.14754 0.253955 -9.44689e-20)
(1.09911 0.0846743 0)
(0.0609557 3.09025 -5.6052e-19)
(0.0549621 2.86555 -4.35618e-20)
(0.115469 3.20934 6.84936e-19)
(0.124687 3.22587 -6.08357e-20)
(0.137814 3.25094 0)
(0.0230127 3.13997 1.34055e-19)
(0.0690342 3.16514 5.55568e-19)
(0.0678303 3.18646 -2.55997e-19)
(0.0287898 3.12777 0)
(0.701612 0.346964 0)
(0.60729 0.396196 0)
(1.07073 0.709488 -2.72774e-19)
(1.02304 0.809932 3.96903e-19)
(1.11072 0.569326 0)
(1.13464 0.563881 0)
(1.01039 0.00823509 -3.9161e-19)
(1.01494 0.0062754 4.82031e-19)
(1.00939 -0.00416033 0)
(1.01275 0.00264659 0)
(1.01967 -0.0073381 0)
(1.0195 0.0119917 0)
(1.01338 -0.00425218 0)
(1.01714 0.0163202 0)
(1.0095 0.00654938 0)
(1.00601 0.00356596 0)
(0.0443275 1.83445 0)
(0.0212261 1.82884 0)
(0.0534981 1.85822 0)
(0.0309855 1.86375 0)
(0.0346407 1.72865 0)
(0.0412683 1.72759 -3.24799e-19)
(0.0314554 1.75443 0)
(0.0365004 1.7492 1.59304e-19)
(0.0300805 1.76775 -1.70819e-19)
(-0.00404358 1.80132 0)
(-0.00501985 1.79939 0)
(-0.00805084 1.80197 0)
(-0.011627 1.81213 0)
(0.00357422 1.78472 -5.31281e-20)
(0.000110639 1.78676 6.38391e-20)
(0.00512195 1.78939 8.05284e-20)
(0.00475821 1.7892 0)
(-0.00327135 1.78686 -1.08067e-19)
(-0.00159885 1.78364 -6.17525e-20)
(0.00539974 1.78364 4.2771e-20)
(-0.00239446 1.78196 -8.53106e-20)
(0.00580915 1.78804 -9.89811e-20)
(1.0068 0.0142716 3.61481e-19)
(1.01154 0.0052439 -4.60166e-19)
(1.00342 0.0236647 -3.85904e-19)
(0.987532 0.0164172 4.86775e-19)
(1.04101 0.011629 0)
(1.04518 0.000261668 0)
(1.05986 0.0321749 0)
(1.04361 0.00145099 0)
(1.06289 0.0140688 0)
(1.08589 0.0618282 0)
(1.07614 0.0378812 0)
(1.09261 0.0398963 0)
(0.00723944 1.78072 -2.28998e-21)
(0.0181866 1.75264 0)
(0.0116792 1.76718 0)
(0.00780987 1.77981 1.97549e-20)
(0.00820777 1.78072 -8.45241e-22)
(0.00460584 1.76495 1.97702e-20)
(0.00119378 1.76852 -2.00202e-20)
(-0.00405258 1.78943 0)
(-0.00299441 1.78886 0)
(-0.00388511 1.78713 0)
(-0.00552422 1.79108 0)
(-0.00749802 1.78849 0)
(0.216921 1.83395 4.08044e-19)
(0.21663 1.7875 2.15501e-19)
(0.34598 1.61946 -2.02773e-19)
(0.162892 1.66453 4.99298e-19)
(0.201065 1.79568 1.31116e-19)
(0.999986 -0.0109057 0)
(1.00081 -0.0262444 0)
(0.989816 -0.028394 0)
(1.02303 -0.0135599 0)
(1.00537 -0.012866 0)
(1.00013 -0.0118407 0)
(1.00113 -0.0165786 0)
(0.994617 -0.0124086 0)
(1.02003 0.00343749 3.52253e-19)
(1.0251 0.000939791 -4.51905e-19)
(1.01634 0.00763322 -3.47647e-19)
(1.01452 0.00570014 4.3989e-19)
(0.681497 1.2523 0)
(0.53314 1.38605 5.01999e-19)
(0.772745 1.11825 3.20038e-19)
(0.811203 1.12212 -4.27938e-19)
(1.02682 2.73364 -9.25471e-19)
(0.824439 0.116779 2.67487e-19)
(1.10297 0.0861654 0)
(1.14822 0.174117 8.29958e-20)
(1.16312 0.143633 5.64129e-21)
(0.973677 0.117951 0)
(0.101655 3.03123 -3.74677e-20)
(0.10851 2.9089 -6.27326e-19)
(0.0558693 2.35213 4.47048e-19)
(0.192561 0.147962 -2.0912e-19)
(0.359606 3.42458 -4.35773e-19)
(0.194241 3.32924 0)
(0.216941 3.38074 5.67661e-19)
(0.230516 3.07685 -2.69477e-19)
(0.259275 3.17815 0)
(0.00652513 3.12173 2.96587e-20)
(0.0172913 3.13098 -3.67177e-19)
(0.0157835 3.12664 5.40426e-19)
(0.036399 3.14004 0)
(0.0349185 3.15165 0)
(1.27043 2.62143 0)
(0.596147 0.848334 -2.42566e-19)
(0.941491 0.996724 -2.06161e-19)
(0.908395 1.00159 0)
(0.815634 0.917221 8.06587e-20)
(1.01972 0.861203 3.2279e-20)
(0.437603 0.446239 -5.53351e-19)
(0.727122 0.337817 -2.12498e-20)
(0.737789 0.321492 2.08701e-19)
(0.617232 0.422358 1.75675e-20)
(0.572939 0.430282 -7.16568e-19)
(0.69346 0.362124 0)
(0.678272 0.425497 3.55314e-19)
(0.677214 0.422426 0)
(0.643884 0.418305 0)
(0.665233 0.368113 0)
(0.753479 0.579867 1.09282e-19)
(1.15371 0.265306 7.26631e-20)
(1.15156 0.404953 0)
(1.18574 0.391616 0)
(0.798061 0.221886 3.21316e-19)
(0.772016 0.544422 -1.74207e-19)
(0.709487 0.476876 2.79957e-19)
(0.883732 0.410413 -2.46959e-19)
(1.02519 -0.00152706 2.47551e-19)
(1.02036 0.00144293 -2.62514e-19)
(1.02314 0.00235299 0)
(1.02119 0.0085456 0)
(1.01171 0.00919327 -2.35836e-19)
(1.01803 -0.00099179 2.37e-19)
(1.01327 0.00166239 0)
(1.01125 0.0038615 0)
(1.02139 0.0112595 0)
(1.02359 0.00364078 0)
(1.0289 0.00837192 0)
(1.02481 0.00775037 0)
(0.011322 1.82466 0)
(-0.00544989 1.8212 0)
(0.0870576 1.84581 6.61234e-21)
(0.146505 1.87075 1.23503e-19)
(0.0699291 1.8888 2.76088e-19)
(0.0822011 1.88947 -4.47648e-19)
(0.0873424 1.86202 0)
(0.0807789 1.77348 -1.13866e-19)
(0.0823045 1.77492 0)
(0.189246 1.77605 -1.89974e-19)
(0.174007 1.73487 5.8807e-19)
(0.100786 1.79759 1.03203e-19)
(0.142015 1.83886 4.24263e-20)
(0.122902 1.84956 -3.45112e-20)
(0.160668 1.78727 -9.36814e-20)
(0.143552 1.76844 0)
(0.140848 1.76984 9.35771e-20)
(0.00849805 1.77418 -5.13548e-20)
(0.0349675 1.76523 0)
(0.0499745 1.76671 1.85363e-19)
(0.0369033 1.76226 0)
(0.0463108 1.75803 -1.80717e-19)
(0.042309 1.76377 0)
(-0.00789518 1.76747 -4.73693e-20)
(0.000413962 1.77746 0)
(-0.00973085 1.77717 0)
(-0.00951038 1.76581 5.27384e-20)
(-0.00164646 1.77933 1.04331e-21)
(0.00639899 1.77509 2.03042e-19)
(-0.0070956 1.77253 1.35445e-21)
(-0.00829825 1.77066 3.77123e-20)
(-0.0049183 1.77041 2.33361e-20)
(-0.00551728 1.79668 0)
(-0.00454259 1.79455 0)
(0.012421 1.78599 1.25418e-19)
(0.0025822 1.77823 8.3446e-20)
(-0.000207585 1.78122 -1.14858e-19)
(0.0292108 1.78756 0)
(-0.0029761 1.76245 -7.24339e-20)
(0.000467022 1.77148 3.31299e-20)
(-0.000558726 1.77437 -1.03899e-20)
(-0.00930562 1.7733 -4.55215e-20)
(-0.00414282 1.78293 -1.43186e-20)
(-0.00575562 1.78352 7.15362e-20)
(1.01244 0.00379536 -2.40429e-19)
(1.01453 0.00293433 2.50588e-19)
(1.01171 -0.00110863 0)
(0.987718 0.067069 3.70297e-19)
(0.984613 0.0218606 -4.20942e-19)
(0.958589 0.0205038 4.88892e-19)
(0.986609 0.0927162 -4.78314e-20)
(1.03019 0.00116729 0)
(1.03691 0.0128949 2.03006e-19)
(1.03969 0.00455854 -2.01455e-19)
(1.02392 0.037227 -1.15752e-20)
(1.02717 0.0135575 1.02265e-19)
(0.992499 0.0305063 0)
(0.979685 0.0247399 -3.75139e-20)
(1.00582 0.0212095 0)
(1.00538 0.0246467 0)
(1.01447 0.00187533 0)
(1.01543 0.00379505 0)
(1.00093 0.0203445 7.96239e-20)
(1.00475 0.0203772 -1.75835e-19)
(1.00703 0.0336523 -8.15818e-20)
(0.985923 0.0243807 -9.35222e-20)
(0.990869 0.0368128 1.55393e-19)
(1.04338 0.0378894 0)
(1.04867 0.0846491 0)
(-0.00238971 1.75963 -2.72611e-20)
(0.0174931 1.75469 -2.47289e-21)
(0.00747387 1.7538 0)
(0.00439202 1.77282 2.71004e-20)
(0.0136956 1.772 4.53325e-21)
(0.00864337 1.77441 -3.76665e-21)
(-0.00128139 1.78309 5.60436e-20)
(0.000801135 1.77999 -3.64384e-21)
(-0.00205031 1.78106 1.62864e-20)
(0.0015615 1.78065 -3.0256e-20)
(0.0012271 1.78117 3.62036e-20)
(-0.00412565 1.78557 5.98902e-22)
(-0.00151886 1.7743 2.94577e-20)
(0.165428 1.76762 -1.76657e-19)
(0.146542 1.79342 5.74876e-20)
(0.487643 1.49463 -4.90394e-19)
(0.319388 1.70252 -2.0728e-19)
(0.353204 1.62081 0)
(0.422395 1.60259 2.16269e-19)
(0.465577 1.55149 2.90147e-19)
(0.205701 1.66798 4.75305e-20)
(0.211532 1.67185 -6.7742e-19)
(0.278096 1.68973 5.87233e-19)
(0.310427 1.65739 0)
(0.227529 1.66647 -4.35217e-19)
(0.0848104 1.70393 8.11108e-19)
(0.144365 1.6967 -4.93697e-20)
(0.0842442 1.71028 -1.10475e-18)
(0.859581 1.75153 4.81643e-19)
(0.612866 1.54276 0)
(1.02932 -0.0148316 8.3215e-21)
(1.00501 -0.00660369 -7.03177e-21)
(1.01561 0.0115946 -1.21104e-19)
(1.0288 0.00478451 1.19516e-19)
(1.03091 -0.00778964 0)
(0.429631 1.04609 0)
(0.535535 0.883631 0)
(0.688476 1.02139 0)
(0.646688 0.74922 0)
(1.08482 2.79032 -8.22376e-20)
(0.896852 2.44792 0)
(0.488758 2.80851 -6.44659e-21)
(0.439542 2.34739 0)
(0.526522 2.54188 -3.563e-19)
(0.545602 2.6002 2.28383e-19)
(0.845065 0.127939 0)
(0.827051 0.154474 7.77491e-20)
(0.896541 0.111763 3.7748e-19)
(0.843468 0.110881 -1.55959e-19)
(0.829438 0.0931264 -4.74908e-19)
(0.998334 0.192441 -2.04251e-19)
(0.910754 0.287667 -1.27047e-20)
(0.867925 0.273604 3.63601e-19)
(0.939839 0.182648 2.46683e-19)
(0.924757 0.152148 -4.75754e-19)
(0.909289 0.149061 6.2798e-20)
(0.936315 0.230927 -1.16414e-19)
(0.909529 0.173974 0)
(0.965462 0.138699 2.22478e-19)
(0.985073 0.14571 0)
(0.970085 0.16233 0)
(1.04808 0.106333 6.29673e-20)
(0.997818 0.143533 -1.29126e-20)
(0.997823 0.202488 -3.65121e-20)
(1.06428 0.190392 0)
(1.00949 0.0248457 1.82885e-19)
(1.00309 0.0280345 2.14123e-19)
(1.00925 0.0290528 -1.76674e-19)
(1.02014 0.0409933 -1.46259e-19)
(1.0076 0.0589014 -2.59309e-19)
(0.934659 0.0993324 0)
(0.958575 0.0820977 0)
(0.951725 0.0397373 -1.7526e-19)
(0.916231 0.0579359 7.66628e-20)
(1.02053 0.100017 2.10113e-19)
(0.998295 0.121075 -2.03097e-19)
(1.00725 0.138885 1.89539e-19)
(1.00976 0.13731 0)
(1.01547 0.092312 0)
(1.00398 0.0830431 -8.4439e-20)
(1.02261 0.0859644 -1.63891e-19)
(0.705171 1.44829 -5.76637e-19)
(0.839314 2.29063 5.70137e-19)
(1.16207 2.97522 3.77435e-19)
(1.25028 3.20484 -1.02025e-19)
(1.19145 2.88215 7.99337e-19)
(1.29468 2.7901 -3.08067e-19)
(1.17498 2.3604 4.49908e-21)
(1.22736 3.15671 4.42052e-19)
(1.19183 3.15058 -6.11713e-19)
(1.24097 3.29796 -2.80214e-19)
(1.4319 3.01422 3.05916e-19)
(1.44047 2.91236 0)
(0.594786 0.861553 -7.35484e-21)
(0.19139 1.32014 2.69189e-19)
(0.447021 0.583553 3.6032e-19)
(0.264934 0.367834 4.00602e-19)
(0.562188 0.437114 4.01122e-19)
(0.536444 0.489337 -6.67692e-19)
(0.529368 0.50659 5.50394e-19)
(0.502522 0.501768 -2.12387e-19)
(0.517609 0.427736 4.89627e-19)
(0.796148 0.244564 -1.78778e-19)
(0.7609 0.296409 0)
(0.77694 0.268575 1.14349e-20)
(0.672651 0.507865 1.84142e-19)
(0.649358 0.48733 -6.75271e-19)
(0.587318 0.51765 2.15837e-20)
(0.633985 0.457719 0)
(0.661512 0.737511 1.27114e-19)
(0.773109 0.730993 2.00498e-21)
(0.721926 0.842938 -1.56447e-20)
(0.82207 0.698106 -1.42549e-21)
(0.909524 0.820218 2.03111e-20)
(0.897625 0.785277 -2.09387e-20)
(0.77828 0.616194 -1.84807e-19)
(0.853263 0.665064 1.32273e-21)
(0.946591 0.666106 0)
(0.943938 0.661563 8.5842e-21)
(0.948121 0.310107 5.06982e-20)
(1.08526 0.283813 -1.43844e-20)
(0.987293 0.223899 8.35952e-20)
(0.93628 0.342828 -1.18467e-19)
(0.955579 0.417134 0)
(1.02823 0.393461 0)
(0.802994 0.356767 -3.93666e-21)
(0.83439 0.275425 0)
(0.839345 0.26386 1.82408e-19)
(0.816991 0.276059 1.44436e-21)
(0.879175 0.413196 6.77971e-19)
(0.829125 0.504402 1.68189e-19)
(0.820216 0.441998 -2.41696e-19)
(0.767922 0.421294 2.58605e-19)
(0.747791 0.425966 1.75273e-19)
(0.714454 0.422182 -1.71534e-19)
(1.01934 0.0223336 1.94549e-19)
(1.02254 0.00566304 0)
(1.01889 0.0145133 1.33391e-19)
(1.01592 0.020984 -3.01187e-19)
(1.02186 0.00906904 1.40205e-19)
(1.02056 0.0102711 -2.97127e-19)
(1.01522 0.00363365 0)
(1.01407 -0.00148542 -6.21767e-20)
(1.02556 0.00272583 1.52568e-19)
(1.02314 0.000537398 -7.89267e-20)
(1.02062 0.00370296 5.85582e-20)
(-0.0188706 1.80752 0)
(-0.0123544 1.77788 0)
(-0.013472 1.81889 0)
(-0.0163071 1.81551 0)
(0.0496407 1.81905 5.62217e-20)
(0.0532669 1.82851 -1.53396e-20)
(0.057773 1.78673 -4.09224e-20)
(0.0534192 1.83104 -1.75852e-20)
(0.0131985 1.79313 -8.48093e-20)
(0.0227517 1.79217 6.11762e-20)
(0.0480792 1.81453 -1.34159e-20)
(0.020104 1.81721 -2.79005e-20)
(0.00070526 1.796 -2.99674e-21)
(-0.0111855 1.78995 -8.18736e-21)
(0.0468035 1.76656 -2.03145e-19)
(0.0500506 1.76206 0)
(0.052684 1.7539 1.23328e-19)
(0.0741097 1.77201 8.14046e-20)
(0.119007 1.74228 -8.71229e-20)
(0.0959357 1.69255 0)
(0.100742 1.68632 -6.12346e-19)
(0.154234 1.71664 4.27121e-19)
(0.106907 1.75235 -2.3582e-19)
(0.0713467 1.73795 1.31315e-19)
(0.0363315 1.71169 0)
(0.00597303 1.78201 -1.4721e-19)
(0.0037494 1.77767 -1.71557e-19)
(0.0063674 1.78709 0)
(-9.63448e-07 1.7769 -3.94797e-21)
(0.00372361 1.77552 7.82046e-20)
(-0.00537603 1.7742 7.77163e-21)
(-0.00247439 1.78415 -1.26921e-19)
(-0.00336363 1.77503 3.21903e-20)
(-0.0071976 1.76172 4.40339e-20)
(-0.00441732 1.76441 0)
(-0.00260266 1.7779 0)
(-0.00186347 1.79136 3.36944e-20)
(-7.92197e-05 1.78739 -1.02078e-20)
(-0.000212284 1.78319 0)
(-0.00216323 1.79223 2.55997e-20)
(-0.00249807 1.78912 -5.20064e-20)
(1.00824 0.0181857 0)
(1.01068 0.0246234 -1.91993e-20)
(1.01014 0.0119032 -1.38187e-19)
(1.01686 0.0247603 0)
(1.01695 0.0288287 0)
(1.01014 0.00230217 -7.52053e-21)
(1.01321 0.00125531 2.28098e-19)
(1.01187 0.00352933 2.80298e-19)
(1.01852 0.00474285 0)
(1.01867 0.00380906 0)
(1.01104 0.0109484 1.4128e-19)
(1.01019 0.00981439 0)
(1.0186 0.00770998 0)
(-0.00903529 1.76397 0)
(-0.00854146 1.76363 3.30009e-21)
(-0.00628775 1.75766 1.65466e-20)
(-0.00394406 1.78836 0)
(-0.00657972 1.77714 2.26064e-20)
(-0.00506311 1.78758 -9.67368e-21)
(-0.0029725 1.79219 0)
(0.179747 1.96313 0)
(0.106722 1.81424 -1.10251e-19)
(0.127579 1.84365 0)
(0.115687 1.8128 -1.61228e-20)
(0.17636 1.61004 0)
(0.153279 1.73936 5.9412e-20)
(0.904971 2.54216 -9.23294e-21)
(0.875957 1.84046 -6.15728e-19)
(0.906322 1.82371 3.65729e-21)
(0.662897 1.59527 2.36608e-19)
(0.538524 2.04656 0)
(0.575335 2.22196 0)
(0.842937 1.69941 0)
(0.782145 1.5196 -8.43081e-19)
(0.349134 2.12489 -5.08511e-19)
(0.51058 2.00727 -1.50879e-19)
(0.411947 2.28133 1.16251e-19)
(0.527514 1.55344 0)
(0.599529 1.52452 0)
(0.575632 1.51159 -3.3712e-19)
(0.539433 1.83632 0)
(0.831557 0.771805 0)
(0.706625 0.920898 2.59309e-19)
(0.683806 0.848473 1.04731e-20)
(0.729557 0.813997 0)
(0.781383 0.954543 -4.06623e-19)
(0.751797 0.874779 4.51687e-20)
(0.770432 0.947364 0)
(0.745681 0.944169 -1.05905e-19)
(0.738134 0.914913 0)
(0.720933 0.859018 0)
(1.04939 3.05741 3.49919e-19)
(1.09422 3.10667 4.00318e-19)
(0.825629 2.86808 -8.31407e-19)
(0.730875 2.82474 1.34565e-19)
(0.994349 2.92793 0)
(0.895201 2.8976 -1.68795e-19)
(0.923042 2.58016 3.32713e-19)
(0.873627 2.31411 2.12894e-21)
(0.191553 2.31492 0)
(0.310704 1.32379 5.02249e-19)
(0.350974 1.31145 0)
(0.866707 0.192099 0)
(0.834255 0.177987 0)
(0.793361 0.188648 0)
(0.871441 0.210707 -2.89184e-19)
(0.821296 0.214767 1.83003e-19)
(0.915083 0.0608452 -1.59237e-19)
(0.901209 0.10258 0)
(0.887745 0.110219 7.06438e-20)
(0.873276 0.0773568 2.96716e-19)
(0.885007 0.0589373 -1.81272e-19)
(1.14329 3.34527 -9.06933e-19)
(1.22948 3.24608 0)
(1.14189 3.42684 -2.00728e-18)
(0.695161 3.58188 1.69058e-18)
(1.03271 3.12029 3.16873e-19)
(0.571455 1.01863 3.37612e-19)
(0.625531 0.968722 0)
(0.40889 0.606719 -8.89119e-20)
(0.417645 0.75713 3.94722e-19)
(0.480155 0.565258 -1.15708e-19)
(0.495554 0.552589 1.3764e-19)
(0.615088 0.504484 2.68118e-19)
(0.660411 0.515016 0)
(0.587052 0.629385 0)
(0.5498 0.59132 0)
(0.946219 0.562509 -6.06718e-20)
(0.860103 0.515486 -1.61164e-19)
(0.868353 0.559164 4.7341e-20)
(0.895492 0.48176 -1.20564e-19)
(0.978608 0.453367 0)
(0.973277 0.533969 7.02499e-22)
(0.783986 0.38389 -3.88416e-19)
(0.796816 0.369624 -4.37607e-19)
(0.748231 0.395372 3.05601e-19)
(0.735205 0.380045 -3.41462e-19)
(0.817871 0.317865 -2.48211e-19)
(0.758167 0.334942 3.0521e-19)
(1.01758 0.00483493 -1.5014e-19)
(1.01868 -3.57475e-06 3.10439e-19)
(1.01875 0.0196558 1.83997e-19)
(1.01783 0.0237313 -2.26386e-19)
(1.00041 0.023959 0)
(1.01345 -0.00193092 -3.61751e-19)
(0.0525037 1.78686 2.9244e-20)
(0.03755 1.79226 0)
(0.0676712 1.77598 2.39233e-19)
(0.0690336 1.78089 -2.20903e-19)
(0.060546 1.78675 7.53231e-20)
(0.0557426 1.79386 0)
(-0.0119519 1.77006 0)
(-0.00698742 1.77279 -1.28063e-20)
(-0.00809431 1.7769 1.1619e-20)
(-0.00718678 1.77421 2.62101e-21)
(-0.0107429 1.76892 -2.18068e-20)
(-0.00964543 1.77049 1.20511e-20)
(0.123449 2.08708 5.07996e-20)
(0.0867055 2.04837 -6.02876e-20)
(0.0630088 1.80935 1.37268e-19)
(0.083075 2.00415 6.49227e-21)
(0.324321 1.1812 0)
(0.19564 1.50602 3.29611e-19)
(0.247024 1.32611 -3.19914e-19)
(0.0318441 1.59631 -1.36304e-19)
(0.0662385 1.56479 0)
(0.200805 1.2785 0)
(0.370299 1.98249 7.74217e-19)
(0.472969 1.72659 1.46636e-18)
(0.536568 1.80809 -9.45861e-19)
(0.427465 1.69995 -1.82636e-19)
(0.301973 1.83587 2.90964e-19)
(0.276966 1.69156 -7.45701e-19)
(0.907459 2.04026 2.68989e-20)
(0.89548 2.31415 0)
(0.914662 2.04655 4.50179e-19)
(0.916015 2.80544 0)
(0.833923 2.67358 0)
(0.681565 2.21667 2.14361e-19)
(1.15122 3.05954 3.74416e-19)
(1.07913 2.9596 -3.81718e-19)
(0.282501 0.98075 0)
(0.353766 0.887214 -2.04645e-19)
(0.643566 0.900656 -1.48801e-19)
(0.351285 2.02033 0)
(0.367958 2.7183 -2.20534e-19)
(0.397518 2.47902 0)
(0.689898 0.698542 -2.6529e-19)
(0.737102 0.65764 3.54191e-19)
(0.747974 0.586482 -3.49658e-19)
(0.633296 0.643905 -4.25972e-20)
(0.693393 0.578397 -1.82951e-19)
(1.08356 2.7476 -2.83928e-19)
(1.13075 2.79768 4.9822e-19)
(0.663009 2.1767 -3.57122e-20)
(0.800148 1.76439 -3.29552e-21)
(1.0671 2.12417 6.83245e-19)
(1.15142 2.50981 2.78873e-20)
(1.09105 2.55798 -4.58165e-19)
(0.926472 1.86988 -2.12335e-20)
(0.876869 1.47536 -4.2174e-19)
)
;

boundaryField
{
    wall-4
    {
        type            noSlip;
    }
    velocity-inlet-5
    {
        type            fixedValue;
        value           uniform (1 0 0);
    }
    velocity-inlet-6
    {
        type            fixedValue;
        value           uniform (0 3 0);
    }
    pressure-outlet-7
    {
        type            zeroGradient;
    }
    wall-8
    {
        type            noSlip;
    }
    frontAndBackPlanes
    {
        type            empty;
    }
}


// ************************************************************************* //
