/*--------------------------------*- C++ -*----------------------------------*\
  =========                 |
  \\      /  F ield         | OpenFOAM: The Open Source CFD Toolbox
   \\    /   O peration     | Website:  https://openfoam.org
    \\  /    A nd           | Version:  6
     \\/     M anipulation  |
\*---------------------------------------------------------------------------*/
FoamFile
{
    version     2.0;
    format      ascii;
    class       volScalarField;
    location    "3";
    object      p;
}
// * * * * * * * * * * * * * * * * * * * * * * * * * * * * * * * * * * * * * //

dimensions      [0 2 -2 0 0 0 0];

internalField   nonuniform List<scalar> 
918
(
0.472305
0.76032
-0.0123963
0.445395
0.00401389
0.72505
-0.784757
0.384693
0.458393
-0.13883
-0.00525446
0.388115
0.59672
0.328436
-1.37444
0.0252403
0.48779
-0.86523
0.352077
0.00979021
0.411152
0.488168
0.457233
0.378963
0.426914
0.422472
0.487343
-0.018275
0.00191398
-0.0172141
0.00229585
0.00672529
0.0100186
0.608861
0.660092
0.684573
0.378407
0.0660766
-0.547848
-0.60267
-0.59349
-0.893162
0.405303
0.426951
-0.292432
0.354491
0.340484
0.389236
0.446699
0.455381
0.458758
0.464486
0.472152
0.250839
-0.168373
-0.251291
-0.113172
-0.0804717
0.0710913
-0.0122179
-0.00120803
0.007313
-3.08207e-05
0.342399
0.382334
0.384852
0.395558
0.391757
0.699122
0.671672
0.696976
0.617084
0.629767
0.57486
0.530789
0.309916
0.343421
0.312885
0.306759
-1.6718
-2.28292
-0.971185
-0.740724
0.00252908
0.0202633
0.0240363
0.488344
0.498211
0.479446
0.488544
0.637744
-0.755119
-0.990945
0.422412
0.396796
0.463994
0.443136
0.362064
0.390415
-0.00674086
-0.00507312
-0.00491651
0.0151442
-0.00194493
0.290318
0.285723
0.324021
0.356839
0.39355
0.400731
0.397468
0.177422
0.434254
0.444754
0.129801
0.298743
0.359896
0.328144
0.427507
0.352896
0.477647
0.493728
0.0161965
0.0113614
0.0107581
0.00684681
0.0096524
0.3704
0.361392
0.393138
0.378449
0.391464
-0.0325154
-0.215128
0.196443
0.342582
-0.387753
-0.432456
-0.82702
-0.721009
-1.01426
0.735555
0.430858
0.452865
-0.246691
-0.204124
-0.323769
-0.144595
-0.188319
0.410253
0.389719
0.39843
0.373866
0.385857
0.389148
0.460159
0.454843
0.456228
0.251582
0.32597
0.231174
0.205653
-0.507217
-0.286404
-0.491721
-0.0572833
-0.0589553
0.0716213
0.0908882
0.068702
0.0486027
-0.0448536
-0.00833304
-0.0172853
0.00617978
-0.000353211
0.3475
0.323241
0.335198
0.350035
0.386577
0.381948
0.377775
0.379922
0.462812
0.516361
0.515975
0.476526
-2.86271
-4.5698
-0.512623
-0.341671
0.0158798
0.00849492
0.00275669
-0.008019
0.00234793
-0.00191085
0.0532168
0.0599082
0.0103779
0.0217673
0.476369
0.483383
0.627754
0.676703
0.564177
0.562636
0.39015
0.393893
0.395446
0.390851
-0.000651874
-0.0105936
-0.00771642
0.314192
0.273903
0.298432
0.152201
0.059712
0.213387
0.248939
0.46673
0.465711
0.476148
0.224336
0.229251
0.543574
0.56725
0.531567
0.550771
0.602669
0.626279
0.602546
0.349323
0.362376
0.355947
0.390199
0.385743
0.390198
0.392169
0.38333
0.385591
-0.30591
-0.527221
0.647124
0.583834
0.437388
0.539862
0.705642
0.741445
0.475634
0.45515
0.472485
-0.103975
-0.141165
0.183415
0.149014
0.287906
0.298825
0.291686
0.469349
0.352923
0.464189
0.420409
0.364926
0.425376
-0.486302
-1.6054
-0.939371
0.0720265
-0.178745
-0.0353571
0.0460736
0.0414752
0.0410987
0.654312
0.705359
0.363959
0.475241
0.460396
0.333399
0.30746
0.39433
0.335467
0.381151
0.379991
0.297246
0.700222
0.66253
0.709523
0.709907
0.72885
0.0133647
-0.0216906
-0.0546526
0.106962
0.126017
0.122282
0.689091
0.702703
0.732597
0.3262
0.385177
0.0183935
0.015176
0.429974
0.413006
0.00454333
0.0112072
-0.170015
-1.24667
0.0834975
0.393428
0.395424
0.413457
-0.126206
0.21655
-0.0082959
0.0756845
0.0571184
0.376933
0.340758
0.306505
0.0174062
0.00494466
-0.0265023
-0.35653
0.390508
0.383701
0.410325
0.412138
0.438785
0.00255842
0.00749653
0.0206603
-0.0276886
0.00124465
0.0204988
0.375254
0.372793
-0.21826
0.396509
0.399922
0.423329
0.391504
0.416469
0.430922
0.00620648
0.00958913
0.00555035
0.102597
0.245577
0.179375
0.38912
-0.0639829
-0.241206
-0.468598
0.0582649
0.174953
-0.00855044
0.267195
0.408831
0.344052
0.150821
0.00821277
0.0986804
0.0407592
0.389552
0.395783
0.377046
0.406759
0.392744
0.397061
0.39008
0.39078
0.38513
0.393815
-0.0589041
-0.101138
-0.12572
-0.177855
0.254768
0.341213
0.169661
0.20949
0.126457
-0.00573478
0.0141062
-0.00297785
-0.00522561
0.0561166
0.0653039
0.0453064
0.0655846
0.0300144
0.0286066
0.0476142
0.025041
0.0215068
0.375095
0.377417
0.371363
0.395606
0.358831
0.353888
0.3374
0.33433
0.356863
0.304007
0.29488
0.307344
0.012859
0.0125622
0.00961588
0.0243627
0.00666824
-0.00182041
-0.00819916
-0.0571437
-0.0254818
-0.00618936
-0.00555581
-0.00274214
-0.27192
-0.419936
0.584344
0.509275
0.275043
0.411852
0.408275
0.393433
0.377667
0.408419
0.424598
0.421525
0.380644
0.38335
0.387106
0.375004
0.391375
-0.159067
-0.258316
-0.0345737
-0.172445
0.0631503
0.442775
0.23236
0.246287
0.216156
0.35569
-0.456045
-0.215487
0.340232
0.371738
-0.943625
-0.626594
-0.833878
-0.587082
-0.60726
0.229723
0.266043
0.256562
0.233875
0.157624
-0.281065
0.342347
-0.0833714
-0.0194127
0.204282
0.0840673
0.11373
0.434213
0.452844
0.313091
0.297286
0.377983
0.358694
0.372713
0.36591
0.388025
0.34718
0.123852
0.163962
0.11378
0.458133
0.369551
0.381291
0.333375
0.407096
0.404074
0.403111
0.401098
0.409285
0.391153
0.392416
0.390265
0.383162
0.395872
0.387299
0.383803
-0.0689573
-0.0412931
-0.129402
-0.227025
-0.190388
-0.279462
-0.135706
0.0615769
-0.0310949
0.206103
0.304946
0.0673769
-0.125448
-0.0653873
-0.0247622
0.123857
0.0794573
0.0733493
0.150156
0.158321
0.116207
0.188953
0.181317
0.0213453
0.0468052
0.0117173
0.0110105
0.0908201
0.0951346
0.104596
0.0364435
0.0535212
0.00738759
0.0130607
0.0566611
0.0538643
0.0694349
0.0411914
0.00676584
0.0123924
0.0301074
0.0168462
0.0705661
0.0296665
0.384586
0.390492
0.38812
0.374304
0.390792
0.406722
0.352788
0.358423
0.373005
0.365393
0.341692
0.340729
0.339046
0.360158
0.359351
0.370056
0.391432
0.388283
0.36627
0.366768
0.343287
0.356806
0.305403
0.303022
0.322922
0.0205041
-0.00112683
0.00588979
0.0185053
0.00870909
0.0121334
0.0404287
0.0508321
0.068976
0.031082
0.061494
-0.0353006
0.000950072
-0.107899
0.00430847
-0.227149
-0.303582
-0.360774
0.577339
0.632773
0.501668
0.421158
0.446895
0.520703
0.552663
0.36269
0.430575
0.417772
0.656142
0.647418
0.351142
0.335404
0.38555
0.375067
0.376152
0.0113615
0.179965
0.190839
0.291661
0.252448
0.257242
0.369936
0.369814
0.463429
0.418884
0.43391
0.448278
0.411579
0.437495
0.457086
0.284175
0.366523
0.414656
0.372782
0.380354
0.394228
0.374595
0.378627
0.364715
0.361359
0.353448
0.288363
0.327203
0.317588
0.326925
0.359549
0.356378
0.353728
0.347082
0.387929
0.395315
0.384771
0.402881
0.398194
0.328744
0.301494
0.316563
0.333518
0.321387
0.308551
0.316832
0.408815
0.472446
0.344717
-0.148537
-0.0512542
-0.188328
-0.201119
-0.0605831
0.202251
-0.344199
-0.408494
-0.819445
0.377455
-0.550456
-0.128738
-0.212124
0.265182
0.236797
0.174386
0.17194
0.24508
0.43996
0.451869
0.458742
0.336892
0.34034
0.272199
0.312523
0.381879
0.425259
0.443784
0.378132
0.256523
0.294075
0.354492
0.334761
0.265958
0.255694
0.302117
0.201302
0.234983
0.321283
0.321785
0.296016
0.373532
0.43093
0.418976
0.402983
0.328336
0.359196
0.347621
0.387035
0.398038
0.395757
0.395499
0.387427
0.38094
0.382336
0.382198
0.388346
0.379881
0.394461
0.403583
0.430474
0.410444
-0.000256776
0.0137765
-0.0228453
-0.0273929
0.0507868
-0.000513005
-0.109485
-0.117017
0.0322633
0.0101943
-0.00739941
-0.0548997
-0.00537446
0.0319845
0.137471
0.148897
0.145388
0.0793634
0.220289
0.299993
0.331865
0.279728
0.181936
0.195234
0.232962
0.0581557
0.078235
0.0648228
0.0818044
0.0738531
-0.0250731
-0.0210452
-0.0186849
0.023475
0.000517289
-0.0258152
0.00321353
0.00251981
-0.00266634
0.00360793
0.00374508
0.361706
0.332948
0.301798
0.287044
0.303656
0.324448
0.36855
0.372376
0.391282
0.384501
0.377756
0.377542
0.389803
-0.012416
0.00182566
-0.0236529
0.0115559
0.0218637
-0.00199152
0.012837
0.284849
0.121111
0.230882
0.044067
-0.179538
-0.0790601
0.490801
0.603073
0.634598
0.613621
0.56421
0.562013
0.623301
0.645823
0.417452
0.515128
0.440067
0.618947
0.611096
0.647542
0.520935
0.408114
0.471029
0.538656
0.436413
0.436893
0.405664
0.266605
0.275941
0.368941
0.492944
0.358091
0.387185
0.421358
0.39402
0.379631
0.429564
0.377918
0.459288
0.314598
0.328809
0.245689
0.416373
0.439076
0.466493
0.433488
0.455822
0.414632
0.423619
0.421394
0.438944
0.427012
-0.634239
-0.361243
-1.37102
-1.20849
-0.78308
0.222063
0.411549
-0.156798
0.137366
-0.0356001
0.121394
0.26804
0.297991
0.258747
0.227279
0.306971
0.368882
0.379028
0.320981
0.240716
0.174525
0.412346
0.415932
0.406056
0.425648
0.4228
0.42537
0.357082
0.378985
0.36793
0.389446
0.380698
0.378111
0.0964863
0.0761101
0.10217
0.0669302
0.0276353
0.0777955
-0.0127834
-0.0422508
-0.0064526
0.0205641
0.00781744
0.0301374
0.298986
0.299175
0.101596
0.221346
0.0321878
-0.0793567
-0.0946415
0.0725392
0.18147
0.177618
0.4413
0.530046
0.467405
0.504327
0.405469
0.442741
0.590993
0.508318
0.579432
0.502888
0.52306
-0.111101
-0.276754
-0.398401
-0.709392
-0.411311
-0.0702947
-0.190167
-0.503457
-0.60216
0.353591
0.362136
0.339899
0.302495
0.299632
-0.00172733
0.0619931
0.158989
0.514638
0.442664
0.300573
0.381365
0.489508
0.51303
)
;

boundaryField
{
    wall-4
    {
        type            zeroGradient;
    }
    velocity-inlet-5
    {
        type            zeroGradient;
    }
    velocity-inlet-6
    {
        type            zeroGradient;
    }
    pressure-outlet-7
    {
        type            fixedValue;
        value           uniform 0;
    }
    wall-8
    {
        type            zeroGradient;
    }
    frontAndBackPlanes
    {
        type            empty;
    }
}


// ************************************************************************* //
