/*--------------------------------*- C++ -*----------------------------------*\
  =========                 |
  \\      /  F ield         | OpenFOAM: The Open Source CFD Toolbox
   \\    /   O peration     | Website:  https://openfoam.org
    \\  /    A nd           | Version:  6
     \\/     M anipulation  |
\*---------------------------------------------------------------------------*/
FoamFile
{
    version     2.0;
    format      ascii;
    class       surfaceScalarField;
    location    "3";
    object      phi;
}
// * * * * * * * * * * * * * * * * * * * * * * * * * * * * * * * * * * * * * //

dimensions      [0 3 -1 0 0 0 0];

internalField   nonuniform List<scalar> 
1300
(
3.75095
5.62643
-6.56849
3.75095
-6.30303
5.62643
-6.02103
6.02103
-1.6793
1.6793
1.89638
1.85458
-5.73249
5.73249
-5.56464
5.56464
-3.02009
3.02009
-5.23412
5.23412
-5.208
5.208
4.45693
-4.45693
-5.25803
5.25803
-2.21145
2.21145
-6.21599
6.21599
3.21606
-3.21606
-5.58121
5.58121
-1.00538
1.00538
-0.484619
4.23557
3.26633
3.26633
-2.79072
2.79072
-4.89226
4.89226
6.20964
-6.20964
9.82886
-9.82886
-3.26037
-3.28781
1.26418
-8.03253
-5.03885
-5.03885
-8.44146
8.44146
-2.81503
2.8114
3.18145
-3.18145
-1.69831
1.69831
-5.73037
-0.290657
-5.73037
6.31238
-0.291348
6.31238
-1.78859
0.109284
-1.78859
4.55699
-4.55699
1.52995
0.14935
1.52995
3.18159
-3.18159
-1.89758
3.79396
1.85337
-1.89893
6.1345
-1.85202
3.7066
-4.94533
4.94533
-5.82794
0.0954413
-5.82794
5.66382
0.0686787
5.66382
-5.47119
5.47119
-5.57452
0.00988731
-5.57452
5.57948
-0.0148496
5.57948
3.22445
-3.22445
-3.07056
0.0504704
-3.07056
3.03523
-0.0151402
3.03523
0.359327
5.2671
-5.98576
8.79716
-5.2671
0.0329791
5.19564
0.0384874
5.19564
-5.23987
0.0318716
-5.23987
5.13259
0.0754073
5.13259
4.28975
0.167181
4.28975
-4.71543
0.258492
-4.71543
-3.26232
-3.30733
-5.34559
0.0875624
-5.34559
-2.22193
0.0104873
-2.22193
2.1163
0.0951475
2.1163
-3.8435
3.8435
-6.52782
0.311822
-6.52782
3.10992
0.106141
3.10992
1.93462
1.81633
5.68557
-5.68557
2.46952
-5.61791
0.0366939
-5.61791
-5.57337
-4.25549
5.57337
0.00784451
-1.28805
0.282678
-1.28805
3.22502
0.0413108
3.22502
2.99032
0.0449094
-2.99032
0.199595
3.68412
-3.68412
2.16987
0.620858
2.16987
-5.48379
5.48379
5.03215
0.100442
-5.03215
0.139887
6.10998
0.0996604
6.10998
-6.23446
0.0248171
-6.23446
3.33881
-6.62662
-3.26632
5.15265
0.105379
-5.15265
0.1138
3.22444
-0.0429922
3.22444
-3.13598
3.13598
-3.18053
-0.000927532
-3.18053
-1.63581
-0.0624996
-1.63581
1.99051
-0.292194
1.99051
-5.22267
-0.507706
-5.22267
-6.52598
-0.00183713
6.52598
-0.213603
2.99562
-2.99562
-1.93498
0.146389
-1.93498
-4.81094
-0.411726
4.81094
-0.253954
-4.27557
-0.281415
-4.27557
-3.15974
-0.020784
3.15974
0.0218505
3.1563
0.0687244
-3.1563
-0.0252923
-1.86803
3.68436
-1.88292
3.7363
-4.82177
-0.123563
-4.82177
5.02953
-0.0841923
5.02953
6.04132
0.174671
-6.04132
0.213388
5.64056
0.023256
5.64056
-5.39392
-0.0772744
-5.39392
5.50709
-0.0358959
5.50709
5.62871
0.0118502
-5.62871
0.0541865
5.55572
0.0237633
5.55572
3.3133
-0.0888562
3.3133
-3.2379
0.0134513
-3.2379
3.15032
-3.15032
3.11173
0.0385805
-3.11173
0.0411759
-11.0757
11.1006
-0.000121154
-11.0756
5.19552
5.19552
3.3166
0.973153
3.3166
-4.96971
0.254287
-4.96971
3.26879
-6.53511
3.24908
-6.5114
3.35315
-11.3857
3.2795
-6.58683
5.44652
-5.44652
5.42314
0.0233789
-5.42314
0.0775432
-2.20143
-0.0205042
-2.20143
-3.72227
-0.121232
-3.72227
4.13231
-0.288804
4.13231
-3.17174
3.17174
-3.12919
-0.0425536
3.12919
-0.0192749
5.60267
-0.0469528
-5.60267
-0.0152342
1.4119
0.118056
-1.4119
0.123844
3.87214
-0.188023
3.87214
-3.51019
-0.173925
-3.51019
-2.20572
0.00429096
2.20572
-0.0358533
-5.71981
0.236026
-5.71981
-11.1862
0.110572
-11.1477
-6.12388
-6.12388
2.31757
11.1147
-3.21298
-0.0249171
3.21298
0.0114635
3.16547
0.00627269
-3.16547
0.0294893
-3.12961
-0.0207028
3.12961
0.00636924
-1.76638
0.130565
-1.76638
-2.59553
2.59553
-2.32039
-0.275133
2.32039
-0.329887
3.08136
-0.0857393
3.08136
2.07762
0.038677
-2.07762
0.142645
-4.10178
-0.173789
-4.10178
5.22353
-0.194006
5.22353
-3.37357
-0.136626
3.37357
-0.0602646
0.032822
11.0677
-5.22834
-0.0115335
5.22834
-11.1674
11.1559
-2.32137
0.554992
2.32137
0.99523
5.21807
0.265712
-5.21807
0.248359
5.54985
-0.0427575
-5.54985
0.103331
-3.58268
-0.139591
-3.58268
-4.49278
-0.328992
4.49278
-0.360472
-11.4361
-0.217186
11.6533
-11.3607
5.937
0.172983
-5.937
11.3289
-2.82023
-0.175389
2.82023
-0.224707
3.24869
-0.167325
3.24869
4.01974
-0.147599
-4.01974
-0.0820402
-5.33448
-0.0594383
5.33448
-0.110949
-3.42374
-0.158936
3.42374
-0.175056
-4.17735
4.21866
1.95716
-3.29118
-3.33545
-7.54666
1.69392
1.99044
4.16344
-7.02194
-4.36374
-6.90814
7.32092
-7.07256
-8.816
8.98318
7.31658
-7.59799
-5.86746
5.84818
6.37123
-6.34938
1.84963
1.94433
10.7702
-10.6748
-10.0441
9.92056
10.1674
-10.1575
10.4851
-10.5624
-12.2074
12.1647
-5.66406
5.71453
-6.62239
6.63584
-6.68898
6.62872
-3.27932
-3.23208
9.02019
-8.93263
11.6784
-11.6417
-11.2808
11.5927
3.26719
0.951469
3.33591
-1.82462
3.67425
-1.88197
3.83913
3.27563
-6.55494
3.25948
-6.59493
5.99558
5.6828
-6.00342
-1.54324
-5.90759
5.86459
-5.8159
5.82227
10.3934
-10.6841
-1.87126
3.81559
-1.86504
3.85548
-3.40549
-2.46197
3.29935
0.86409
5.52764
3.49255
-5.63302
-1.27512
-7.57111
7.42351
-7.72911
7.55518
-0.598588
5.92141
-5.32282
4.29368
-1.62137
7.54277
5.69956
5.95385
5.91323
-5.64751
1.15934
-6.48216
-6.34227
-2.57484
2.72123
2.59343
-2.44408
6.17784
1.13874
5.92388
-5.47029
-2.1277
-5.64408
3.89492
1.95326
3.85237
4.10687
2.26435
4.08609
3.02951
-3.03351
0.00400355
-3.03967
6.06918
0.782075
-5.50164
-4.63755
7.02294
3.74728
7.09162
-7.30684
-3.36794
-7.09345
-6.04141
-4.00272
-6.3704
6.44458
3.47598
6.36039
-7.84013
7.72918
6.73525
3.43215
6.7204
-6.82772
-3.32978
-6.77354
10.1626
-2.65
-7.5126
-6.7886
-5.41883
6.8245
3.66061
7.41385
4.75082
7.51718
3.54439
6.6182
-7.205
1.78617
-3.79272
-1.87133
-3.75155
3.66915
2.04538
3.65401
-4.1809
-2.44149
-4.20581
-4.2063
-2.48269
4.29515
2.34069
-4.23039
-3.49872
4.36702
2.2617
2.96563
-7.32937
3.6212
-6.85328
-6.32288
-2.60975
-6.24534
3.99235
2.53073
-6.52308
-2.56259
10.7008
-5.01795
9.15752
-7.24501
-4.39667
-7.26025
-8.72744
-2.5534
-8.72928
-5.34882
5.20923
-5.47928
5.19048
10.4244
-5.80257
-4.62188
-3.86996
-2.47942
3.89525
-0.559339
-3.76116
3.76517
-0.0869094
3.75222
4.70369
4.14435
-3.85187
-1.96403
-3.82238
3.86138
1.96089
3.84068
8.52769
1.86572
8.23634
-6.98447
-3.6996
-7.49218
6.10669
-6.16919
3.03566
-3.03137
5.09143
2.46375
-4.90341
-2.6677
5.86103
-2.94708
-2.91395
-12.8236
10.7393
2.08436
-5.28087
-0.987196
0.018181
-5.43354
-3.38246
5.17505
0.7788
11.5181
8.13562
-5.53807
5.7741
6.11525
6.21569
-0.126582
4.37218
-3.81719
3.31669
-0.771291
-2.5454
5.69625
-6.10797
-1.79593
-5.38194
3.58601
-0.18409
2.21351
-1.93084
-2.07831
-0.496532
-1.93566
1.65947
0.933966
1.77752
0.941571
1.77966
-2.73897
0.555145
2.18383
-1.7974
-1.88894
-3.43452
-0.713806
4.14833
5.52964
1.89386
-5.4476
-0.196478
2.80629
-2.71115
-0.842216
-2.59231
1.8279
-2.67011
-3.21202
-1.91113
5.12316
-3.34932
-0.473061
3.34305
0.509325
-3.76367
-2.14392
3.7646
0.321492
-2.92389
6.06408
-3.14019
-4.88793
2.54315
3.52604
4.49641
-4.71289
2.35263
2.36026
-1.18685
6.03756
1.05407
6.06081
-8.99027
5.62233
7.66007
3.9326
-7.83474
0.741286
-8.24899
9.54533
-8.25774
-1.28759
4.83453
4.7108
5.34932
5.07512
-3.67962
9.02894
-1.16939
-7.08835
9.41837
-5.48577
5.79206
-11.2778
-10.8672
3.77883
-6.73817
8.36005
-1.62189
-2.41471
-5.42541
9.15288
-0.740966
-8.41192
5.61942
-5.29423
-5.36819
10.6624
-7.94423
8.69798
-2.5406
-6.15738
-6.56141
-4.00097
6.62085
1.10832
-9.62958
11.4158
-3.01138
5.8317
0.888698
5.85546
3.86722
-5.91241
2.04518
4.077
-6.6176
2.41053
-8.32294
-4.8124
9.4345
-4.62209
-7.42215
-6.45467
-0.967476
1.95844
9.45732
-6.70926
5.15945
1.54981
3.31028
0.530396
-3.34886
-0.402685
0.288949
4.3828
-4.67175
3.94296
3.98787
3.45987
0.922932
3.82611
2.03849
-3.83757
-0.368242
-3.86951
1.38682
-1.52882
-3.3662
4.75302
-3.78465
0.418452
-2.68599
-3.41327
6.09925
-4.55732
2.96667
3.09742
4.92756
-4.75915
1.34588
-2.38796
-2.37119
2.43877
-3.96759
1.88757
2.86544
4.14928
0.65056
4.82858
4.60591
-7.35931
0.506029
8.09846
-6.82334
1.59532
5.92187
-6.75477
0.300092
-5.94524
1.14968
-6.16763
-5.3734
6.20124
-8.75465
-5.07659
7.93726
0.299079
-7.72366
-1.00562
-3.80392
-1.5449
-3.96286
-1.64865
-3.83064
-5.32827
-1.25736
-4.0709
3.95187
-4.15222
-2.21818
4.51269
0.677788
-4.70454
4.52915
-4.64159
4.47426
0.200186
3.56498
4.34454
1.86512
-2.37813
4.24325
-6.91569
8.78141
-10.273
3.35733
3.69357
-7.39316
-6.57945
3.69289
2.4138
3.40069
6.02279
-7.6052
1.58241
-6.66991
7.47561
-0.805707
-10.1421
3.4722
-4.11932
2.78995
0.245705
2.76945
0.741103
2.25389
-2.99499
-2.29026
-2.32612
-2.20441
-3.10908
5.31348
1.02331
-3.21793
2.19462
-3.11887
4.14217
-0.214518
-3.00341
5.0104
-2.75651
5.2561
-3.33338
1.92272
3.10452
5.20782
-2.10329
4.11247
-1.64872
1.66431
-3.7676
-1.44477
-2.88102
4.9264
-3.21823
3.63668
-0.254651
3.89133
-4.01174
1.06466
-0.55187
3.436
3.63559
3.97641
-3.05348
2.70513
-4.35386
-1.06246
-3.7033
-0.837851
-1.84561
-4.73097
6.57658
4.94435
-6.78996
-3.78639
6.49995
-2.71356
5.45283
-4.47483
-0.978004
-2.99783
-3.17136
2.86726
1.50492
6.95775
-0.118921
-4.35591
-3.93611
-2.94088
3.34388
-0.027189
-3.30362
5.38799
3.28544
-1.07193
0.438822
1.3387
1.76548
-1.32666
0.46829
1.29719
-1.46255
2.04967
0.75662
-2.08835
0.15269
-1.25235
3.08024
0.93148
-1.86545
0.538787
1.79771
-2.569
4.04919
-1.42333
-2.62586
5.8469
1.70223
-3.12556
3.67971
-3.8638
2.24966
-2.96347
-0.875897
-4.7397
-3.60096
-2.3275
4.52212
-2.98598
4.87985
1.3101
-4.68337
5.99347
-3.36581
1.45468
-2.76787
3.52449
-0.776361
-1.99151
2.58531
2.53785
-2.75312
0.160811
-0.167811
2.09383
-2.26165
-0.576278
-2.37368
-4.38792
4.70941
-2.11969
4.47232
2.12356
-2.005
6.47732
1.76272
-3.76772
-3.12521
-3.59827
-1.40746
3.08895
-0.848397
-5.92514
-7.00578
5.91329
0.147522
-8.87649
10.0113
-1.13476
-5.12922
-0.493117
5.32765
-7.28517
0.667566
-4.87463
5.13662
6.19069
6.33821
-8.27019
-0.14172
-4.79421
1.18286
-5.97707
5.89366
-2.68913
6.46795
-7.01761
4.79943
-6.33982
5.18036
-0.79671
5.43863
-3.39344
2.07397
-6.07494
-4.96661
6.98155
-3.5494
7.87025
-4.10164
11.9719
-7.11302
6.93287
5.03902
-1.39308
-5.86716
-6.87422
5.48113
0.058652
5.91412
4.74601
-2.70752
4.37777
2.03131
-4.41927
-1.93627
-6.29251
1.87324
-3.1951
-1.82618
3.69941
3.10138
3.63178
1.32823
-3.22909
6.5459
-7.51338
-1.92381
-3.44959
6.74673
-1.2656
3.81758
-7.26717
-2.35005
5.34856
-0.848309
-4.50026
0.454003
-5.53059
2.63094
-8.16153
6.12371
-7.12933
1.37578
-5.4951
-3.32877
-3.55347
-1.33833
-3.30326
-4.61236
3.27403
-1.14016
3.389
-5.34951
4.5012
-2.1261
5.40014
-3.41611
-0.546743
3.59117
0.883092
6.28323
-1.16631
-5.41315
0.0295223
4.80754
-4.83706
3.3734
-5.89728
-1.08974
2.84725
2.99965
-6.43326
-0.959906
-6.37305
-2.747
5.1608
3.75295
8.6973
1.0921
5.4589
-0.298104
6.551
3.10259
2.7727
-3.75921
5.34162
2.81737
6.1747
-0.859
2.78172
1.91045
1.92093
0.790212
2.21815
1.41744
3.28281
0.287819
-2.0383
4.32991
-7.27079
-0.0259967
-6.29764
2.68554
5.68257
-2.99702
3.58839
-3.61558
-1.24867
0.616645
-0.869008
0.252363
-1.92876
-1.94094
-0.643745
-1.52009
2.05887
1.56016
-1.41513
-0.513627
0.164985
-3.76594
2.79849
-2.63767
-0.0998246
5.89364
-2.467
0.205359
-1.01233
-2.16832
-2.66485
2.51216
6.12389
0.353424
2.9837
5.06283
2.91892
0.211393
4.41335
-6.03524
-3.90959
-6.17696
-0.283298
5.04435
1.88959
7.56773
6.92861
5.66301
-1.60416
-9.11754
7.26116
-1.91953
6.45545
-1.95519
-6.20634
6.41152
2.36989
-6.7106
-0.41873
-6.62507
-8.5446
-0.50227
5.00347
-5.78096
5.23422
3.68931
0.381591
-2.8115
-0.741974
3.08663
-0.313928
6.23707
-2.11043
-7.16337
9.27379
-3.57214
3.54614
3.2874
2.10058
3.53977
-0.0758099
-7.23918
-10.2362
-1.21756
-1.35144
-3.84342
0.30491
-1.86506
4.59998
-1.05384
3.62198
8.21996
6.97128
-2.23461
-4.55535
4.94817
-1.32619
5.64509
)
;

boundaryField
{
    wall-4
    {
        type            calculated;
        value           uniform 0;
    }
    velocity-inlet-5
    {
        type            calculated;
        value           uniform -3.75095;
    }
    velocity-inlet-6
    {
        type            calculated;
        value           uniform -5.62643;
    }
    pressure-outlet-7
    {
        type            calculated;
        value           nonuniform List<scalar> 8(6.56849 6.30303 6.54818 6.76835 6.56965 6.60513 6.51787 6.63265);
    }
    wall-8
    {
        type            calculated;
        value           uniform 0;
    }
    frontAndBackPlanes
    {
        type            empty;
        value           nonuniform 0();
    }
}


// ************************************************************************* //
