/*--------------------------------*- C++ -*----------------------------------*\
  =========                 |
  \\      /  F ield         | OpenFOAM: The Open Source CFD Toolbox
   \\    /   O peration     | Website:  https://openfoam.org
    \\  /    A nd           | Version:  6
     \\/     M anipulation  |
\*---------------------------------------------------------------------------*/
FoamFile
{
    version     2.0;
    format      ascii;
    class       volVectorField;
    location    "3";
    object      U;
}
// * * * * * * * * * * * * * * * * * * * * * * * * * * * * * * * * * * * * * //

dimensions      [0 1 -1 0 0 0 0];

internalField   nonuniform List<vector> 
918
(
(0.969515 -0.0306042 0)
(0.00221029 2.96746 0)
(-0.101359 1.72485 0)
(0.928374 0.0606129 0)
(-0.0402469 1.69048 -8.21867e-21)
(-0.00624978 2.9485 -1.52859e-18)
(1.20643 1.53477 6.91542e-19)
(0.564931 0.308541 -8.79151e-21)
(0.98701 -0.0121284 0)
(0.00790832 1.74717 0)
(0.0219706 1.69311 0)
(0.914815 0.032987 0)
(0.0235205 2.91912 0)
(-0.00135076 2.88592 0)
(-0.0418386 3.05149 1.15444e-18)
(0.00411851 1.67787 -2.12098e-20)
(0.714685 0.14403 7.43685e-19)
(0.275475 1.97523 6.66959e-19)
(0.992489 0.0813288 0)
(0.0259326 1.69958 0)
(0.463726 0.384895 -3.67922e-19)
(0.920351 0.00563372 0)
(0.925221 -0.00147918 0)
(0.974282 0.0470675 0)
(0.840661 0.0570459 0)
(0.0611994 2.65216 0)
(-0.0529071 2.89078 4.97966e-19)
(-0.00225414 1.73931 0)
(-0.0144475 1.74819 0)
(-0.00667655 1.75982 0)
(-0.00327611 1.79059 0)
(-0.0309704 1.71068 6.5211e-21)
(-0.00866368 1.67448 0)
(-0.023607 2.98802 -5.21037e-23)
(-0.0170407 3.00557 1.19504e-18)
(0.00225139 2.99998 0)
(0.968846 0.00528011 0)
(0.541619 0.659742 -1.03358e-21)
(1.11748 1.5914 -7.26121e-19)
(1.28208 1.28569 7.54219e-19)
(0.961627 1.78814 -1.55333e-19)
(1.06081 1.75457 9.53113e-19)
(0.600859 0.327667 8.57716e-21)
(0.571034 0.297073 0)
(1.32664 0.696393 0)
(0.590003 0.348642 3.38125e-20)
(0.523969 0.342632 -3.50789e-20)
(0.962248 0.00957529 0)
(0.978371 -0.00116807 0)
(0.992108 0.00761289 0)
(0.918852 -0.0465884 0)
(0.971363 0.00861994 0)
(0.996474 0.0112644 0)
(-0.0180918 1.61428 -4.65577e-19)
(-0.00614944 1.78515 0)
(0.0371593 1.7817 0)
(0.0148744 1.77431 0)
(0.025789 1.70285 0)
(-0.00842039 1.69206 0)
(0.00739596 1.74053 0)
(0.0122957 1.69101 0)
(0.0158707 1.73385 0)
(0.0188205 1.69793 0)
(0.965404 -0.0346307 0)
(0.9621 0.0186638 0)
(0.928611 2.00348e-05 0)
(0.934498 0.0134905 0)
(0.922348 -0.00451279 0)
(0.0164974 3.00004 5.55604e-19)
(0.0148465 3.00701 0)
(0.00785943 3.00164 0)
(0.0149965 2.99287 6.19598e-24)
(0.0149788 2.95673 -8.25908e-19)
(0.0167621 2.97119 0)
(0.0165345 2.90066 0)
(-0.00190374 2.99848 7.85243e-25)
(-0.0272889 2.9209 0)
(0.025254 2.97509 0)
(0.00246836 2.82423 0)
(0.131622 3.25225 0)
(-0.107992 3.30504 0)
(0.0569289 3.11994 -1.07034e-18)
(-0.0322469 2.95405 0)
(-0.00995286 1.74849 0)
(0.0107225 1.7202 2.09244e-20)
(0.019941 1.67865 -1.55223e-20)
(0.741524 0.183962 -2.59948e-19)
(0.721944 0.134794 -2.63312e-19)
(0.728017 0.224537 -7.77752e-19)
(0.666618 0.201393 -5.06393e-19)
(0.192024 1.33302 0)
(0.378183 2.05207 -6.94481e-19)
(0.505331 2.04307 1.1692e-18)
(0.969181 0.053519 0)
(0.941027 0.0163239 0)
(0.992535 -0.0142902 0)
(0.959862 0.00736825 0)
(1.04715 0.0858717 -1.90747e-18)
(1.01629 0.0488052 1.45247e-18)
(0.00795471 1.74747 0)
(-0.00182613 1.71083 0)
(-0.00778861 1.74614 0)
(0.0290509 1.72843 0)
(0.0194208 1.69589 0)
(0.41643 0.435036 1.05338e-19)
(0.512696 0.378773 0)
(1.03606 0.0122588 0)
(0.995825 0.005992 0)
(0.938329 -0.00221576 0)
(0.912543 0.0275706 0)
(0.914019 0.00765763 0)
(1.1141 -0.0216636 0)
(0.844631 0.0757536 0)
(0.788743 0.0456939 1.11724e-18)
(-0.000388848 2.8007 1.21447e-19)
(0.045942 2.95955 0)
(0.0432835 2.91044 0)
(0.0185628 2.75085 0)
(-0.0574085 2.97022 4.35378e-19)
(-0.0484567 2.88669 0)
(-0.0350847 2.99961 -1.42575e-18)
(-0.0118838 2.94315 4.57749e-19)
(0.0202636 1.76226 0)
(0.0103198 1.75778 0)
(-0.0201413 1.71999 -2.42248e-22)
(-0.00482524 1.72029 0)
(-0.00440202 1.6677 0)
(0.997026 0.0107339 0)
(0.977953 -0.00214634 0)
(0.942003 -0.0197892 0)
(0.992324 0.016555 0)
(0.965971 0.0133346 0)
(0.637636 0.904329 -1.25376e-20)
(0.426349 0.802415 0)
(0.740168 0.947777 1.22203e-20)
(0.635899 0.770208 0)
(1.14173 1.37443 -2.06065e-19)
(1.31484 1.04055 3.7436e-19)
(0.583789 2.06472 0)
(0.773814 1.96041 0)
(0.812194 1.96243 0)
(0.575861 1.18449 -3.33794e-19)
(0.635058 0.318056 0)
(0.626155 0.243226 1.31075e-19)
(1.19418 1.11935 0)
(1.23826 0.908779 0)
(1.3079 0.843816 -2.82617e-19)
(1.26075 0.661066 0)
(1.32426 0.46156 3.71316e-20)
(0.980128 0.000859877 0)
(1.00341 -0.0068298 0)
(0.95419 -0.0340118 0)
(0.986207 0.0117213 0)
(0.984515 0.0067591 0)
(0.959328 0.00587661 0)
(0.95744 -0.0111814 0)
(0.971984 0.00297891 0)
(0.991581 0.00617047 0)
(0.0153454 1.67138 2.42552e-19)
(0.0649244 1.59505 0)
(-0.0280616 1.64093 4.46504e-19)
(-0.0151812 1.59851 -3.8825e-19)
(0.182096 1.94554 -5.58433e-19)
(0.0405827 1.84335 0)
(0.108203 1.85525 0)
(0.000345141 1.75965 0)
(-0.0257612 1.7177 0)
(0.00839784 1.71907 -9.59499e-22)
(0.0120086 1.66319 0)
(-0.0184372 1.71918 -4.96144e-20)
(-0.00036619 1.68965 8.94614e-20)
(-0.018804 1.7646 0)
(0.0174924 1.74147 0)
(-0.00151453 1.71153 0)
(0.00722927 1.73374 0)
(0.0100162 1.68738 0)
(1.01228 0.00861284 0)
(0.997853 0.0293791 0)
(1.03099 0.00657291 0)
(0.976648 0.0291279 0)
(0.952847 -0.00732746 0)
(0.979712 -0.00290471 0)
(0.961992 0.0152614 0)
(0.950479 -0.00546385 0)
(0.0320879 3.06496 -4.35055e-21)
(0.0131922 3.05263 0)
(-0.00319471 2.96708 0)
(-0.0130932 2.89852 0)
(0.579636 3.43273 0)
(0.816287 2.78215 7.48888e-19)
(0.0539508 3.052 0)
(-0.0149255 2.88469 0)
(-0.00376461 1.73911 0)
(0.00911206 1.73621 0)
(0.00261607 1.73985 0)
(-0.00288414 1.79094 -6.5535e-22)
(-0.0132184 1.7528 0)
(-0.0045978 1.77209 0)
(-0.0326565 1.65698 -8.04625e-21)
(-0.00218847 1.72577 4.93389e-20)
(0.0160657 1.74106 1.56026e-20)
(0.0411083 1.68678 0)
(0.769901 0.139452 4.06104e-19)
(0.742891 0.0659336 -3.91164e-19)
(0.169399 1.40582 0)
(0.270541 1.32856 -2.08931e-19)
(0.144043 1.43165 -6.02905e-19)
(0.161753 1.40413 6.02564e-19)
(0.964006 -0.00814887 0)
(0.976959 -0.00667882 0)
(0.979798 -0.00444758 0)
(0.949201 0.00814173 0)
(-0.00251516 1.72759 0)
(-0.00538082 1.74834 0)
(-0.0181696 1.71226 0)
(0.553707 0.362594 2.76744e-19)
(0.535977 0.379826 -2.74472e-19)
(0.511316 0.359871 0)
(1.20166 0.0907619 1.84275e-20)
(1.21096 0.0653801 0)
(1.13957 0.0467055 0)
(1.05594 0.0196035 0)
(0.790515 0.0989983 0)
(0.817799 0.0501835 -1.80393e-18)
(0.770035 0.017572 6.86428e-19)
(0.0113387 2.95557 2.47194e-19)
(-0.0355667 2.81052 5.90611e-20)
(0.0168742 3.03786 -8.95759e-21)
(0.0155896 3.04054 3.54365e-19)
(-0.0145354 3.00325 1.60804e-20)
(-0.0113824 2.96148 -6.68659e-23)
(-0.0150646 3.01065 -3.26228e-19)
(0.0164399 3.02276 2.44863e-19)
(0.0188973 3.02708 -4.1897e-19)
(1.00849 0.023468 0)
(1.00743 0.0141484 0)
(0.972429 0.0245928 0)
(0.986298 -0.0221346 0)
(0.988705 -0.00549131 0)
(0.963003 -0.0167203 0)
(0.97439 0.00830557 0)
(0.987162 0.0063838 0)
(0.950971 0.0168581 0)
(0.565868 1.08157 2.35726e-19)
(0.386999 1.11531 0)
(0.649128 1.04631 9.28618e-20)
(0.671878 1.17334 6.66534e-19)
(0.704704 1.06036 -3.54279e-19)
(0.655833 0.926589 6.55605e-19)
(0.471036 1.31234 1.6117e-18)
(0.480071 1.19963 3.25474e-19)
(0.688654 0.247992 5.39412e-19)
(0.674684 0.271147 1.31133e-19)
(0.659449 0.227921 2.57179e-19)
(1.26578 0.493576 1.24674e-19)
(1.30844 0.357251 1.27599e-19)
(0.00877623 1.66785 1.77945e-19)
(0.0294442 1.6486 0)
(1.07031 0.0300502 0)
(1.06062 0.0157425 0)
(1.0216 -0.017849 0)
(0.0402484 3.05682 0)
(-0.021864 2.99171 5.08902e-19)
(-0.0253689 2.96836 0)
(-0.0365916 2.91535 -5.26487e-19)
(0.0573619 3.08122 1.14989e-19)
(0.0557065 3.07246 0)
(0.47676 1.28959 -1.72549e-19)
(0.83368 2.03931 5.21931e-19)
(0.396626 1.46786 -1.10553e-18)
(0.0520581 2.95715 -1.19126e-19)
(0.0534943 2.98817 0)
(0.00687373 2.82143 0)
(0.0138198 1.73527 -2.97027e-21)
(-0.0330558 1.74012 -7.73191e-20)
(0.0100362 1.71694 -1.91815e-21)
(0.260601 1.39789 6.53557e-19)
(0.343566 1.31079 -4.5364e-19)
(0.0458466 1.61669 4.10634e-19)
(0.0876676 1.52475 -5.04729e-19)
(0.0855698 1.50354 5.88475e-20)
(0.0449207 3.08896 -6.92029e-19)
(0.0500341 3.09901 6.89513e-19)
(-0.0361097 2.96328 3.95455e-19)
(-0.0338942 2.9395 -2.94318e-19)
(-0.0582676 2.82374 -4.02933e-19)
(0.0540077 3.07317 -8.18424e-19)
(0.049098 3.10153 8.1622e-19)
(0.579454 1.27741 0)
(0.631141 1.24095 -1.5651e-18)
(0.62818 1.12859 7.04315e-19)
(0.435474 1.29886 8.89111e-19)
(0.472289 1.23806 -1.38809e-18)
(1.28655 0.153489 1.792e-20)
(1.27617 0.283178 0)
(1.28998 0.135282 2.47735e-20)
(-0.0107515 1.70163 -1.4439e-21)
(0.0139783 1.7037 0)
(-0.00184905 1.66405 0)
(0.317194 1.36501 -2.35232e-19)
(0.380721 1.35253 -5.7274e-19)
(0.39042 1.27292 1.03934e-18)
(1.02449 -0.0704552 0)
(1.00785 -0.0824662 3.76931e-19)
(0.0037084 1.76802 0)
(-0.00727252 1.77398 0)
(0.967328 -0.0171289 1.09494e-20)
(0.984703 -0.0313622 7.18649e-19)
(2.02653e-05 1.7836 9.12553e-22)
(0.0125838 1.77835 0)
(0.0700044 3.22124 -2.10505e-19)
(0.199104 3.34997 0)
(1.07289 0.684294 -5.14634e-20)
(1.02015 -0.0157976 -9.88851e-22)
(1.02767 0.0203007 0)
(1.00542 -0.00919814 -7.30341e-21)
(0.0672048 1.85866 0)
(0.0385174 1.68866 0)
(-0.017636 1.79111 0)
(0.0328956 1.74801 7.79442e-20)
(0.0221223 1.75499 3.27715e-20)
(0.993232 -0.00860501 -1.95914e-21)
(1.0617 0.00732909 0)
(1.07178 0.0352393 0)
(0.0107408 1.74382 0)
(-0.0210758 1.78528 0)
(-0.0143137 1.79065 0)
(0.249858 1.96931 -2.73481e-19)
(0.985815 -0.0607403 0)
(0.975479 -0.0481903 0)
(1.01754 0.00925702 4.88144e-19)
(1.02719 0.00016803 -5.63242e-19)
(0.990881 0.0158118 0)
(-0.0165697 1.74936 0)
(0.00593635 1.76103 0)
(-0.00399448 1.73926 0)
(-0.0154854 1.78705 0)
(-0.000694146 1.77747 0)
(-0.0106849 1.77964 0)
(1.02586 0.0107277 0)
(1.02546 -0.0175084 -4.29513e-21)
(0.767203 1.65005 3.71999e-19)
(1.0365 -0.0170401 -4.92005e-19)
(1.04151 0.0331603 5.85194e-19)
(0.996788 0.00889332 0)
(1.0196 -0.00710221 4.56197e-19)
(0.97362 -0.025254 -5.73648e-19)
(0.981781 -0.00907438 0)
(-0.00611097 1.789 0)
(0.00370029 1.77426 1.01054e-20)
(0.00145036 1.78154 -6.4653e-21)
(1.2108 0.300863 3.70688e-19)
(1.11779 0.0719603 0)
(0.145294 3.11353 -2.40845e-19)
(0.065657 2.89053 -2.74256e-20)
(0.118029 3.24616 -1.77712e-19)
(0.110852 3.25165 1.80003e-19)
(0.112012 3.25834 0)
(0.0224178 3.16735 5.57186e-21)
(0.0794465 3.16228 2.41076e-19)
(0.0840016 3.21957 -3.62666e-20)
(0.0782227 3.11526 0)
(0.699892 0.327832 0)
(0.616348 0.401786 0)
(1.03949 0.731552 1.1581e-19)
(1.13236 0.838123 -1.0931e-19)
(1.12078 0.608552 0)
(1.17646 0.551263 0)
(1.03744 -0.000328213 -8.89476e-19)
(1.02921 -0.0034558 1.10509e-18)
(1.04724 0.0182895 0)
(1.02342 -0.00616619 0)
(0.986115 0.0203912 0)
(1.00619 -0.00931527 0)
(1.03597 -0.0213227 0)
(1.03208 -0.020225 0)
(1.03922 0.0123872 0)
(1.03893 0.0276529 0)
(0.0626078 1.86223 0)
(0.0311739 1.86851 0)
(0.0729554 1.87479 0)
(0.0700126 1.9018 0)
(0.0624748 1.64906 0)
(0.0825983 1.66754 -2.75376e-19)
(0.0279599 1.71312 0)
(0.0326662 1.70219 1.43988e-19)
(0.015154 1.75076 -1.42042e-19)
(-0.0212982 1.78603 0)
(-0.020204 1.7797 0)
(0.00839065 1.79554 0)
(0.00119218 1.80791 0)
(-0.00267823 1.73792 -4.17797e-20)
(0.0238623 1.74704 3.98758e-20)
(0.0247364 1.77281 3.61194e-20)
(0.025242 1.7736 0)
(0.003901 1.78096 -7.07376e-20)
(-0.00913989 1.77655 -4.61087e-20)
(-0.0014494 1.73488 3.34401e-20)
(0.0358656 1.74342 -5.19939e-20)
(0.0305537 1.77193 -4.17215e-20)
(0.997719 -0.00796705 8.53257e-19)
(1.00717 -0.012605 -1.06965e-18)
(0.999104 -0.00372653 -8.76048e-19)
(0.964431 -0.00624988 1.11135e-18)
(1.03525 -0.00917135 0)
(1.0416 -0.0104948 0)
(1.02147 0.018911 0)
(1.07877 0.0287418 0)
(1.06977 0.0246154 0)
(1.04692 0.0491696 0)
(1.08623 0.0339784 0)
(1.08447 0.0374413 0)
(-0.0108954 1.76126 -1.73641e-21)
(0.0313506 1.7425 0)
(0.00969333 1.74252 0)
(-0.0227112 1.78361 1.1011e-20)
(-0.0263629 1.7983 -2.00969e-22)
(-0.00437704 1.73091 -5.59712e-21)
(-0.0144432 1.76173 5.69108e-21)
(0.0131624 1.77341 0)
(0.00343441 1.76279 0)
(-0.00750313 1.76744 0)
(-0.00243459 1.77774 0)
(-0.00990813 1.77259 0)
(0.414109 1.94587 4.29531e-19)
(0.405979 1.95777 2.00347e-19)
(0.261937 1.50292 -1.59711e-19)
(0.163882 1.521 4.22418e-19)
(0.329875 1.63349 9.13458e-20)
(0.994862 -0.000958391 0)
(0.985612 -0.0211552 0)
(0.999685 0.0124142 0)
(1.02901 -0.0207149 0)
(1.00755 -0.0192726 0)
(0.974543 -0.0133716 0)
(0.961956 0.0787037 0)
(1.03567 0.0837604 0)
(1.007 -0.00872907 8.61819e-19)
(1.01659 0.013454 -1.0914e-18)
(1.023 -0.0199495 -8.35421e-19)
(1.01601 -0.00778487 1.076e-18)
(0.759908 1.71868 0)
(0.671218 1.79226 2.69847e-19)
(0.83729 1.48095 9.75397e-20)
(0.860071 1.48977 -1.29214e-19)
(0.910007 1.74686 1.25223e-19)
(0.867053 0.11709 4.26101e-19)
(1.13872 0.104378 0)
(1.0949 0.15974 -3.17e-19)
(1.14416 0.124483 -1.35798e-20)
(0.953155 0.168367 0)
(0.137508 3.21206 -7.44038e-19)
(0.209691 3.00122 6.0738e-20)
(0.222225 2.3065 1.51518e-19)
(0.383779 0.328909 4.84797e-20)
(0.12286 3.33713 -5.84477e-19)
(0.103504 3.29849 0)
(0.12699 3.27139 6.83251e-19)
(0.109539 3.22151 1.49362e-18)
(0.139147 3.25417 0)
(0.0264529 3.1166 1.61293e-20)
(0.0477399 3.12765 -1.98254e-19)
(0.0491068 3.12276 2.92e-19)
(0.0571733 3.14824 0)
(0.0523562 3.17034 0)
(0.916804 1.95782 0)
(0.0647416 0.691681 -1.84405e-19)
(1.03159 1.19642 -3.98127e-21)
(0.944175 1.22326 0)
(0.742231 1.09124 -1.23622e-19)
(0.975097 1.00945 2.97456e-20)
(0.614176 0.526483 2.86243e-20)
(0.688315 0.326851 -1.52498e-20)
(0.67599 0.323685 2.71687e-19)
(0.615423 0.398767 1.2772e-20)
(0.599182 0.404668 -4.981e-19)
(0.703873 0.346675 0)
(0.685066 0.385509 3.80076e-19)
(0.685682 0.385844 0)
(0.629254 0.381001 0)
(0.644174 0.352537 0)
(0.639572 0.679565 3.11653e-19)
(1.20748 0.336903 -2.53731e-19)
(1.17511 0.384057 0)
(1.18916 0.377023 0)
(0.786962 0.234301 4.4055e-19)
(0.680413 0.504557 -2.53966e-19)
(0.691391 0.455354 4.62181e-19)
(0.848543 0.422731 -4.90604e-19)
(1.00525 0.0334773 5.91191e-19)
(1.02537 0.0112572 -6.09846e-19)
(1.00755 0.0376853 0)
(1.01575 -0.00520775 0)
(1.01918 -0.039412 -5.88928e-19)
(1.01576 -0.0221885 5.70392e-19)
(1.00797 -0.011686 0)
(0.99477 -0.00881166 0)
(1.02753 -0.00795155 0)
(1.02853 -0.00554924 0)
(1.00845 -0.0327932 0)
(1.01211 -0.0069605 0)
(0.0228209 1.85712 0)
(0.0191559 1.84059 0)
(0.0361422 1.8203 1.31525e-19)
(0.241586 1.95356 1.3972e-19)
(0.0838938 1.91079 2.80415e-19)
(0.0955921 1.94301 -4.76482e-19)
(0.0776897 1.82666 0)
(0.16603 1.74867 -6.79432e-20)
(0.142929 1.81408 0)
(0.303881 1.702 -1.31753e-19)
(0.238631 1.65921 4.52007e-19)
(0.169864 1.74774 5.92779e-20)
(0.262397 1.893 5.1619e-20)
(0.19893 1.83153 -4.18351e-20)
(0.341069 1.77279 -2.17231e-20)
(0.250883 1.72749 0)
(0.287642 1.74778 2.93843e-20)
(0.0207678 1.73951 -3.85163e-20)
(0.0284237 1.75091 0)
(0.094832 1.72286 1.61771e-19)
(0.0361489 1.72998 0)
(0.0516936 1.72783 -1.68078e-19)
(0.048882 1.75229 0)
(0.0234533 1.7693 -1.59329e-20)
(-0.00654946 1.77486 0)
(0.024514 1.76021 0)
(0.0381351 1.76152 1.79832e-20)
(0.0159886 1.7496 -4.393e-22)
(0.00430178 1.76065 1.60501e-19)
(0.00967823 1.75725 1.143e-21)
(0.0165821 1.7201 1.89681e-20)
(-0.0299905 1.73845 1.81854e-20)
(-0.00651327 1.78273 0)
(0.00892897 1.76815 0)
(-0.00121688 1.76647 8.54283e-20)
(0.0150869 1.73685 8.08013e-20)
(-0.00984671 1.75514 -1.09159e-19)
(0.000417426 1.76262 0)
(-0.0207305 1.76891 -2.35832e-21)
(0.0063111 1.76907 7.93957e-21)
(0.0265139 1.76609 -5.98998e-21)
(0.0347302 1.72445 -2.25588e-20)
(-0.0178926 1.72856 -1.78264e-20)
(-0.00603854 1.771 4.13904e-20)
(1.01314 0.00793419 -5.89346e-19)
(0.993651 0.0311177 5.91466e-19)
(0.996956 0.0287234 0)
(0.96778 0.0266006 8.01876e-19)
(0.941063 0.0481469 -9.08484e-19)
(0.918138 0.0577239 1.02906e-18)
(0.976724 0.00642893 -1.00092e-19)
(1.05171 -0.0099557 0)
(1.03702 -0.0289286 5.2759e-19)
(1.03655 -0.0298236 -5.4036e-19)
(0.971633 0.0358723 -3.1007e-20)
(1.01055 0.03266 2.60364e-19)
(0.968796 0.0639622 0)
(0.974026 0.0303516 -9.8112e-20)
(1.01654 0.0560054 0)
(0.995877 0.0495771 0)
(1.01198 0.0382278 0)
(1.01083 0.0201937 0)
(1.0259 0.0527226 1.95886e-19)
(0.992585 0.0147245 -4.36311e-19)
(0.915515 -0.0055043 -2.05393e-19)
(0.95886 0.023014 -2.30896e-19)
(1.02179 0.0873348 4.05285e-19)
(1.06747 0.0721545 0)
(1.00549 0.0676052 0)
(-0.030156 1.76285 -2.51606e-20)
(-0.021491 1.76746 -5.73008e-22)
(-0.023602 1.76695 0)
(-0.011403 1.77986 2.56559e-20)
(0.0109684 1.76678 2.22179e-21)
(0.00242364 1.77271 -3.32617e-21)
(0.00403969 1.77727 3.2731e-20)
(0.036227 1.73786 -3.42888e-21)
(0.0124384 1.71431 1.90683e-20)
(-0.0219808 1.80224 -3.24405e-20)
(0.000934867 1.78362 4.08079e-20)
(0.037109 1.7438 -5.18197e-22)
(-0.00297801 1.71033 -5.61834e-21)
(0.393927 1.80933 -1.81156e-19)
(0.34653 1.7779 5.65532e-20)
(0.680433 1.82104 -2.59573e-19)
(0.549357 1.90517 -2.00587e-19)
(0.566598 1.87967 0)
(0.307774 1.51029 1.65901e-19)
(0.342242 1.50897 2.38496e-19)
(0.168185 1.53369 3.83466e-20)
(0.211526 1.52821 -5.25537e-19)
(0.225979 1.53015 4.46336e-19)
(0.234303 1.53284 0)
(0.171089 1.52775 -3.63452e-19)
(0.128255 1.62544 7.00616e-19)
(0.182791 1.58558 -4.81484e-20)
(0.127882 1.62762 -9.37908e-19)
(0.592565 1.4659 9.40842e-19)
(0.493122 1.47587 0)
(1.0296 -0.00385203 1.64664e-20)
(1.06159 0.0702707 -1.40503e-20)
(1.00827 -0.00162902 -2.72903e-19)
(0.990748 -0.00321303 2.76336e-19)
(0.99137 0.0323726 0)
(0.638536 1.66061 0)
(0.595016 1.52142 0)
(0.726981 1.313 0)
(0.529039 1.4666 0)
(0.905295 1.69794 1.31962e-19)
(0.955725 1.57734 0)
(0.635357 1.63241 5.97257e-21)
(0.498531 1.58819 0)
(0.574642 1.54095 -6.08591e-19)
(0.600602 1.5758 3.87853e-19)
(0.875058 0.13423 0)
(0.849392 0.145823 1.14383e-19)
(0.908271 0.074926 6.39519e-19)
(0.860781 0.105523 -2.34683e-19)
(0.839362 0.0823612 -8.01904e-19)
(0.975257 0.181816 -5.73362e-19)
(0.911937 0.247739 -2.13077e-20)
(0.804009 0.271345 6.17544e-19)
(0.941099 0.205844 5.01095e-19)
(0.909804 0.128594 -8.28238e-19)
(0.894805 0.161474 1.03844e-19)
(0.820208 0.252898 -2.33993e-19)
(0.898488 0.231562 0)
(0.948893 0.175033 4.16032e-19)
(0.935753 0.180596 0)
(0.955698 0.226558 0)
(1.05906 0.165727 1.95827e-19)
(0.961297 0.170905 -2.21795e-22)
(0.964964 0.16129 -1.22371e-19)
(0.970886 0.18564 0)
(1.00888 0.0576463 4.25512e-19)
(1.01648 0.0280731 5.34928e-19)
(1.01994 0.0645488 -4.17433e-19)
(1.02331 0.0571807 -3.63837e-19)
(0.956448 0.0575819 -5.66375e-19)
(0.954493 0.0794149 0)
(0.963098 0.0108541 0)
(0.923746 0.0891777 -3.58635e-19)
(0.912983 0.0778045 1.34138e-19)
(1.01287 0.0764891 4.63819e-19)
(1.00004 0.0899038 -5.4574e-19)
(0.98476 0.111605 5.00932e-19)
(0.966137 0.136724 0)
(0.98209 0.0787869 0)
(0.998616 0.0938899 -2.23174e-19)
(1.00225 0.103125 -3.78762e-19)
(0.509719 1.65639 2.57081e-19)
(0.514315 1.80216 -2.95455e-19)
(0.781343 1.89554 -2.95856e-19)
(0.734165 2.40254 -8.96153e-21)
(0.934464 1.91122 1.04818e-20)
(0.907659 2.00046 -1.83125e-19)
(1.03667 1.62839 -5.62307e-20)
(0.745631 2.23184 -4.76101e-20)
(0.824273 2.09829 2.3204e-19)
(0.71442 2.62069 -1.55641e-19)
(0.955599 2.29577 1.6545e-19)
(0.958646 2.31643 0)
(0.0916274 0.875861 -4.73947e-20)
(0.259938 1.81608 -2.99876e-19)
(0.784831 0.338997 6.99096e-20)
(0.668728 0.232653 4.16814e-20)
(0.588549 0.40992 2.76567e-19)
(0.579643 0.398746 -3.79939e-19)
(0.554162 0.362449 2.50644e-19)
(0.627312 0.380995 -7.11693e-20)
(0.572869 0.425804 2.90916e-19)
(0.789055 0.259392 -2.47745e-19)
(0.711946 0.30293 0)
(0.754344 0.26145 1.02102e-20)
(0.618656 0.463202 1.96528e-19)
(0.613146 0.441886 -7.30132e-19)
(0.566624 0.389384 -1.24668e-20)
(0.586295 0.425897 0)
(0.361471 0.81691 2.71706e-19)
(0.634522 0.869471 4.59525e-19)
(0.57024 0.837775 -5.22309e-19)
(0.64464 0.897764 -1.57439e-19)
(0.805147 0.909964 -4.81694e-20)
(0.792662 0.929176 4.86169e-20)
(0.78063 0.605472 -5.24969e-19)
(0.798209 0.71018 1.48943e-19)
(0.874446 0.782311 0)
(0.849206 0.75063 -1.72787e-19)
(0.956628 0.364099 1.41209e-19)
(1.09282 0.288554 1.57491e-19)
(1.06568 0.248539 2.31272e-19)
(0.901238 0.41293 -2.95888e-19)
(0.963579 0.366169 0)
(0.949223 0.386433 0)
(0.864849 0.336471 1.6157e-20)
(0.76462 0.317091 0)
(0.788689 0.313764 2.85623e-19)
(0.871877 0.270154 -2.18676e-20)
(0.858875 0.424306 1.32585e-18)
(0.78551 0.48513 4.05007e-19)
(0.808744 0.479022 -3.84508e-19)
(0.75561 0.375272 4.09514e-19)
(0.708996 0.399422 2.43504e-19)
(0.685207 0.421028 -2.33514e-19)
(0.986064 0.0576935 4.7921e-19)
(0.992424 -0.0576573 0)
(1.00717 0.00634857 3.12078e-19)
(0.982715 0.0521115 -7.16452e-19)
(1.01152 -0.026403 3.43707e-19)
(1.01155 0.0610647 -7.29279e-19)
(1.00647 -0.00256034 0)
(0.991897 -0.036613 -1.53898e-19)
(0.999527 0.0455961 3.9742e-19)
(0.967955 0.0184582 -2.05049e-19)
(0.978526 -0.0316037 1.4627e-19)
(0.0220316 1.80754 0)
(0.0291498 1.76072 0)
(0.017382 1.82583 0)
(0.0103729 1.81562 0)
(0.0728397 1.73462 4.59549e-20)
(0.0825437 1.76164 -6.59988e-20)
(0.0930195 1.80394 1.1479e-20)
(0.0625721 1.78023 -1.07319e-19)
(0.046718 1.75684 -3.49714e-20)
(0.0323763 1.77801 2.55237e-20)
(0.0678191 1.77432 -6.37709e-20)
(0.0398265 1.80037 4.62672e-20)
(0.0291724 1.7681 5.67375e-21)
(0.0170741 1.75376 -5.72326e-21)
(0.0929487 1.73171 -1.77868e-19)
(0.0796112 1.72304 0)
(0.0798985 1.7064 1.04711e-19)
(0.111048 1.79983 5.16753e-20)
(0.18814 1.68932 -7.64523e-20)
(0.165315 1.64874 0)
(0.1851 1.63772 -4.67353e-19)
(0.229755 1.65718 3.16551e-19)
(0.121947 1.70169 -1.96381e-19)
(0.0892904 1.67417 1.16049e-19)
(0.0580417 1.63184 0)
(0.0155571 1.74992 -9.34219e-20)
(0.0209302 1.74373 -1.49574e-19)
(0.00119515 1.7274 0)
(0.0124291 1.74776 -2.88145e-21)
(0.00894492 1.73659 4.83103e-20)
(-0.00238897 1.79219 -3.95609e-21)
(0.00328739 1.78924 5.63997e-20)
(-0.011819 1.78681 -3.61488e-20)
(-0.0161187 1.77305 3.71456e-21)
(0.0281568 1.7836 0)
(-0.00740814 1.79195 0)
(-0.0137798 1.77414 3.40094e-21)
(0.000645596 1.79509 -9.44344e-22)
(0.00156996 1.79625 0)
(0.0053173 1.78708 2.99229e-21)
(-0.0165151 1.77547 -5.6271e-21)
(0.963897 0.0754267 0)
(1.03946 0.114755 -4.8336e-20)
(1.04135 -0.00869396 -2.96266e-19)
(0.981715 -0.0133894 0)
(1.04289 0.03906 0)
(1.03981 -0.0586391 -3.69876e-20)
(0.949897 -0.0287454 5.68477e-19)
(1.0123 0.00317127 6.56651e-19)
(0.995799 0.021995 0)
(0.993683 0.0107525 0)
(0.998295 -0.00566365 3.49523e-19)
(1.00792 0.0170062 0)
(0.9925 0.0219266 0)
(0.0237826 1.79077 0)
(0.00849749 1.703 -6.87625e-21)
(-0.0243901 1.78699 -2.98459e-21)
(0.00104077 1.76532 0)
(0.0154183 1.6783 1.39133e-20)
(0.0301305 1.72096 7.52621e-21)
(0.00369169 1.76807 0)
(0.404027 1.66498 0)
(0.317247 1.73633 -1.60917e-19)
(0.327521 1.69386 0)
(0.470281 1.76868 8.11361e-20)
(0.466096 1.81514 0)
(0.431167 1.8023 1.13114e-20)
(0.613582 1.53367 -1.95027e-20)
(0.663126 1.47954 -1.06569e-18)
(0.712966 1.4761 1.26332e-18)
(0.504151 1.49643 2.5711e-19)
(0.505672 1.52216 0)
(0.513885 1.50257 0)
(0.560811 1.4853 0)
(0.517021 1.47849 -9.61644e-19)
(0.346605 1.52097 -5.07822e-19)
(0.471092 1.51329 -1.24394e-19)
(0.486199 1.53688 1.00556e-19)
(0.375052 1.49916 0)
(0.470531 1.49348 0)
(0.426355 1.49496 -2.83955e-19)
(0.440038 1.53248 0)
(0.404062 1.4978 0)
(0.00574647 1.50279 -6.1694e-19)
(0.258624 1.14003 -4.76876e-20)
(0.406134 1.61366 0)
(0.18866 1.66841 9.95764e-19)
(0.658901 0.978437 -1.59126e-19)
(0.669641 1.21612 0)
(0.69593 1.15158 2.20205e-19)
(0.386729 1.34874 0)
(0.44884 1.16387 0)
(0.86876 1.71438 -2.79521e-19)
(0.799132 1.83911 -2.76308e-19)
(0.662168 1.73645 5.05693e-19)
(0.671661 1.6992 -1.50778e-19)
(0.899678 1.63533 0)
(0.82266 1.579 1.94404e-19)
(0.953993 1.52713 -2.79721e-19)
(0.907629 1.48896 -2.07239e-20)
(0.571415 1.62971 0)
(0.524014 1.67316 -2.17695e-19)
(0.529303 1.63157 0)
(0.86867 0.235606 0)
(0.845181 0.150011 0)
(0.787973 0.185678 0)
(0.837848 0.237564 -4.48693e-19)
(0.787076 0.229209 2.66399e-19)
(0.914544 0.0557718 -2.77706e-19)
(0.930386 0.0605407 0)
(0.910845 0.0558369 1.28123e-19)
(0.869465 0.0341003 5.08653e-19)
(0.883807 0.0383188 -3.19037e-19)
(0.636792 2.86927 -6.72719e-19)
(0.673239 2.77464 0)
(0.720783 3.05674 -1.88244e-18)
(0.220595 3.29247 1.40281e-18)
(0.246749 2.98321 5.46019e-19)
(-0.14778 1.19086 6.16869e-20)
(-0.145362 1.50728 0)
(0.121148 0.489528 1.76183e-20)
(0.210017 0.442431 3.00752e-19)
(0.517063 0.139791 -5.45811e-20)
(0.616826 0.389542 -2.01536e-20)
(0.610899 0.444246 2.05386e-19)
(0.621474 0.460015 0)
(0.466305 0.488167 0)
(0.557325 0.364487 0)
(0.898672 0.614335 6.8826e-20)
(0.756974 0.498854 -3.93033e-19)
(0.763736 0.546855 3.44394e-19)
(0.857018 0.489965 -2.82695e-19)
(1.06918 0.428955 0)
(1.09557 0.564556 -7.88045e-20)
(0.766836 0.337482 -5.67722e-19)
(0.758929 0.335053 -7.1879e-19)
(0.69331 0.411702 4.56562e-19)
(0.733322 0.337166 -4.48566e-19)
(0.758791 0.316981 -3.62753e-19)
(0.74956 0.319903 4.47597e-19)
(1.02848 -0.0254933 -3.52504e-19)
(1.03676 -0.0126459 7.12512e-19)
(0.998129 0.057099 4.42897e-19)
(1.00366 0.0552259 -5.39941e-19)
(0.925251 0.0473722 0)
(0.925225 -0.0348071 -9.03328e-19)
(0.0478086 1.77147 2.04084e-20)
(0.0326433 1.72677 0)
(0.0535485 1.78314 1.77779e-19)
(0.0847797 1.79292 -1.4677e-19)
(0.052772 1.72761 -2.12671e-20)
(0.0306755 1.68304 0)
(0.0408758 1.73686 0)
(0.0094869 1.79442 8.02866e-21)
(0.00361317 1.75404 -7.29712e-21)
(0.015544 1.69949 -4.13958e-21)
(0.059505 1.75032 -8.07633e-21)
(0.0208692 1.73065 1.45992e-20)
(0.528199 1.60878 -6.01246e-19)
(0.502704 1.61721 6.48144e-19)
(0.47823 1.72082 -1.22507e-19)
(0.485649 1.66327 2.5388e-20)
(0.641384 1.67321 0)
(0.570734 1.75964 1.12794e-19)
(0.608655 1.70937 -1.07883e-19)
(0.50684 1.73444 1.17946e-19)
(0.577548 1.6332 0)
(0.574887 1.63408 0)
(0.352041 1.50612 7.59289e-19)
(0.376374 1.49083 1.11511e-18)
(0.401577 1.522 -7.68265e-19)
(0.277081 1.51809 -1.46074e-19)
(0.330334 1.51616 2.40361e-19)
(0.223258 1.51971 -5.95422e-19)
(0.771755 1.47342 -7.02556e-19)
(0.858433 1.474 0)
(0.815114 1.47239 -6.9853e-19)
(0.747715 1.53371 0)
(0.717397 1.50982 0)
(-0.0453084 2.69366 1.27305e-19)
(0.431133 2.65679 1.52844e-19)
(0.25521 2.90125 -3.11982e-19)
(0.135953 1.76783 0)
(-0.018666 1.4163 1.00333e-19)
(-0.168276 1.37319 -2.33444e-19)
(-0.0928579 2.69907 0)
(-0.0313117 2.97597 -3.96681e-19)
(0.00226472 2.97298 0)
(0.434697 0.573148 -5.84309e-19)
(0.616553 0.704075 8.16511e-19)
(0.625 0.67112 -8.14713e-19)
(0.473767 0.51284 -6.16001e-20)
(0.625579 0.492882 -2.51587e-19)
(0.313639 2.51884 -1.1302e-19)
(0.411372 2.2593 -1.74578e-19)
(-0.0283226 2.49831 3.98817e-19)
(-0.0246542 2.27009 -3.3495e-19)
(0.494703 1.96249 -6.54867e-19)
(0.528519 2.08044 -2.10689e-19)
(0.58527 1.85119 4.57583e-19)
(0.2024 2.22823 3.44988e-20)
(0.397165 2.06262 2.80061e-19)
)
;

boundaryField
{
    wall-4
    {
        type            noSlip;
    }
    velocity-inlet-5
    {
        type            fixedValue;
        value           uniform (1 0 0);
    }
    velocity-inlet-6
    {
        type            fixedValue;
        value           uniform (0 3 0);
    }
    pressure-outlet-7
    {
        type            zeroGradient;
    }
    wall-8
    {
        type            noSlip;
    }
    frontAndBackPlanes
    {
        type            empty;
    }
}


// ************************************************************************* //
