/*--------------------------------*- C++ -*----------------------------------*\
  =========                 |
  \\      /  F ield         | OpenFOAM: The Open Source CFD Toolbox
   \\    /   O peration     | Website:  https://openfoam.org
    \\  /    A nd           | Version:  6
     \\/     M anipulation  |
\*---------------------------------------------------------------------------*/
FoamFile
{
    version     2.0;
    format      ascii;
    class       volScalarField;
    location    "4";
    object      p;
}
// * * * * * * * * * * * * * * * * * * * * * * * * * * * * * * * * * * * * * //

dimensions      [0 2 -2 0 0 0 0];

internalField   nonuniform List<scalar> 
918
(
0.286544
0.950844
-0.00328549
0.276424
0.00201554
0.915242
-0.740098
0.345684
0.27107
-0.116866
0.0144672
0.238207
0.778876
0.544847
-1.48041
0.0216931
0.364019
-0.864222
0.216254
0.0132028
0.522275
0.296645
0.280052
0.242345
0.281858
0.597786
0.652911
-0.0015681
-0.00177934
-0.00895251
-0.00628524
-0.00386914
0.00454108
0.79876
0.850297
0.873953
0.227891
-0.14459
-0.538592
-0.613332
-0.59083
-0.8708
0.345524
0.35788
-0.393889
0.338694
0.346398
0.234947
0.266016
0.268047
0.277864
0.273509
0.277127
0.255453
-0.145294
-0.234345
-0.0942992
-0.0580429
0.0678874
0.0143784
0.0157482
0.0217718
0.0284393
0.188459
0.232561
0.236817
0.247038
0.24777
0.890916
0.863583
0.889939
0.803687
0.81986
0.754537
0.725661
0.561169
0.584219
0.524319
0.52172
-1.8908
-2.68273
-0.977935
-0.682458
0.00233648
0.021213
0.0284364
0.361053
0.371451
0.361578
0.37451
0.650943
-0.73041
-0.952972
0.264813
0.245175
0.273711
0.268769
0.223802
0.246125
0.00650875
0.0129393
0.0074483
0.0106612
0.00578506
0.429029
0.402886
0.204094
0.216524
0.254026
0.256008
0.254603
0.0323255
0.2889
0.313177
0.297798
0.499047
0.542837
0.5384
0.625714
0.602565
0.685283
0.71027
0.00886301
0.00586084
0.00161834
0.00979885
0.00721357
0.220393
0.217133
0.238787
0.230689
0.231942
-0.23626
-0.393908
0.00669633
0.150611
-0.418392
-0.504935
-0.794254
-0.705311
-0.975311
0.754516
0.346032
0.362844
-0.335604
-0.304911
-0.433102
-0.258537
-0.333722
0.23922
0.232082
0.234507
0.226253
0.232695
0.238576
0.272528
0.267133
0.269036
0.274217
0.34355
0.217425
0.205819
-0.48935
-0.242491
-0.441373
-0.0332938
-0.0400866
0.0797875
0.0852952
0.0561581
0.0635454
-0.012424
-0.000302026
0.00355138
0.0272641
0.0114367
0.186642
0.170585
0.187134
0.205151
0.234785
0.23772
0.229117
0.232557
0.676973
0.701887
0.703706
0.67489
-3.46655
-5.48463
-0.372059
-0.187524
0.00571219
0.00527259
0.001059
-0.00502961
0.00529844
-0.00122384
0.0540386
0.0479844
0.026599
0.00907029
0.347732
0.354263
0.638174
0.69123
0.584083
0.563781
0.242219
0.242664
0.245825
0.238822
0.0197392
0.0136354
0.0162686
0.342131
0.365291
0.361881
0.000278898
-0.0875422
0.0726591
0.102806
0.336032
0.328095
0.334697
0.406176
0.460164
0.725211
0.752202
0.7351
0.745417
0.792277
0.816204
0.7891
0.207105
0.213227
0.207388
0.247634
0.232288
0.24199
0.238655
0.234659
0.237927
-0.450064
-0.694047
0.623252
0.529472
0.296216
0.447601
0.734767
0.771577
0.36426
0.361575
0.370888
-0.224313
-0.281986
0.176984
0.131594
0.134044
0.154686
0.142513
0.64675
0.616737
0.655792
0.627357
0.60438
0.623294
-0.60706
-1.92891
-1.10039
0.244935
0.00428444
0.110413
0.0606153
0.0370594
0.0420834
0.673446
0.728501
0.377268
0.463781
0.460542
0.530569
0.528762
0.564415
0.525209
0.535819
0.556168
0.544232
0.716996
0.657473
0.715959
0.732922
0.743919
-0.117594
-0.170239
-0.19983
0.0918051
0.126578
0.115428
0.71261
0.715872
0.752008
0.20287
0.238285
0.0114768
0.0214969
0.269495
0.251354
0.00902381
0.015058
0.0509288
-1.36812
-0.0590673
0.243399
0.239662
0.257413
-0.0921304
0.241409
0.0158982
0.0745044
0.0657468
0.227743
0.195322
0.162557
0.0157313
0.0137377
0.00265933
-0.342032
0.232409
0.22933
0.257417
0.256788
0.267601
0.0118982
0.0128272
0.0107807
-0.00520834
0.0139312
0.0138401
0.222977
0.228383
-0.242089
0.246116
0.251581
0.257854
0.242525
0.259898
0.270327
0.0117491
0.0108482
-0.00192067
-0.0149595
0.103887
0.418406
0.597828
0.281944
-0.00246098
-0.304371
0.290354
0.364806
0.214715
0.449596
0.321898
0.317773
0.0115158
-0.0997901
-0.0431738
-0.0939476
0.239224
0.239795
0.228121
0.241933
0.236767
0.252239
0.232026
0.245073
0.236493
0.233774
-0.0450526
-0.0729392
-0.11005
-0.145034
0.276605
0.348263
0.183452
0.199575
0.112582
0.0217574
0.0237022
0.0177355
0.00638964
0.0520745
0.0618836
0.0534919
0.05637
0.0342974
0.0347519
0.0487177
0.0391791
0.0407419
0.22911
0.227389
0.226085
0.244002
0.205811
0.206804
0.181796
0.190116
0.187597
0.148853
0.15003
0.15115
0.0125037
0.00513876
0.00611955
0.0169337
0.0197189
0.0219091
0.0156868
-0.0150682
-0.000843337
0.0138724
0.0144236
0.0156997
-0.270473
-0.399143
0.598586
0.522057
0.308902
0.250375
0.250719
0.237594
0.222475
0.248356
0.265663
0.257598
0.232851
0.234538
0.233023
0.231781
0.237581
-0.12697
-0.283972
-0.0713833
-0.177179
-0.122669
0.313942
0.0876426
0.103136
0.0568238
0.229452
0.241807
0.363002
0.573919
0.537556
-0.987555
-0.534035
-0.84109
-0.401505
-0.712504
0.432099
0.474558
0.458425
0.431461
0.385524
-0.338891
0.0245838
-0.161998
-0.0833695
0.0426708
-0.0299836
0.3129
0.32806
0.346646
0.298032
0.317326
0.305577
0.28085
0.288216
0.31099
0.326665
0.184554
-0.012762
-0.00139891
-0.0594327
0.345283
0.227875
0.256952
0.212282
0.243901
0.241441
0.245364
0.240101
0.243478
0.238007
0.236002
0.237676
0.244246
0.241349
0.237259
0.238703
-0.0385414
-0.0184244
-0.0742691
-0.225414
-0.187411
-0.27925
-0.116094
0.0967637
0.0336728
0.247411
0.346692
0.0614637
-0.114013
-0.0720602
-0.0070413
0.113076
0.0801303
0.101528
0.127421
0.161411
0.128408
0.189455
0.172368
0.0235372
0.0439359
0.0237667
0.0175999
0.0794826
0.0895938
0.0897852
0.0404525
0.0529222
0.023871
0.0347505
0.0631969
0.0448944
0.0607416
0.0629437
0.0169492
0.0181776
0.0327886
0.027664
0.0532378
0.0221709
0.227685
0.233485
0.235297
0.228525
0.240545
0.259792
0.222375
0.2135
0.213577
0.213775
0.190596
0.201959
0.19718
0.21356
0.214196
0.226157
0.232329
0.233426
0.220975
0.211978
0.21298
0.219219
0.171185
0.156057
0.167657
0.0244765
0.00477551
0.0172839
0.0228552
0.0111202
0.0130823
0.0497314
0.0405927
0.0612653
0.0242815
0.0504192
0.00848623
0.0203441
-0.102274
0.0144711
-0.233135
-0.309921
-0.3704
0.590479
0.648543
0.509246
0.436565
0.451111
0.532217
0.563
0.353694
0.446826
0.408538
0.665307
0.673589
0.206634
0.206303
0.232647
0.226046
0.225534
0.0349272
0.184142
0.131119
0.223558
0.117433
0.0880803
0.43028
0.427661
0.485097
0.438089
0.302282
0.31955
0.271673
0.30339
0.316906
0.154854
0.224829
0.273277
0.2214
0.252423
0.270779
0.235428
0.25566
0.235284
0.217856
0.208858
0.147305
0.180666
0.166239
0.164769
0.212354
0.20869
0.206499
0.201297
0.226053
0.256115
0.242693
0.253481
0.264747
0.200239
0.172193
0.182667
0.199036
0.175493
0.165694
0.180763
0.435906
0.456575
0.194215
-0.357367
-0.277189
-0.300983
-0.389118
-0.235563
0.0135431
-0.679417
-0.539512
-1.08763
-0.0922922
0.152637
0.217979
0.270707
0.303298
0.258755
0.234525
0.306101
0.329772
0.330464
0.334208
0.344487
0.234294
0.264698
0.246305
0.268288
0.128548
0.237769
0.236038
0.192767
0.0996087
0.110556
0.195961
0.181885
0.138128
0.114531
0.175671
0.0670999
0.112337
0.190774
0.200339
0.132374
0.240835
0.31058
0.295589
0.272939
0.206314
0.225024
0.230266
0.266142
0.277937
0.291034
0.225586
0.237261
0.236029
0.232693
0.229952
0.234294
0.231507
0.238767
0.240724
0.25832
0.251458
0.00989632
0.0206131
-0.00756959
-0.00636641
0.0569895
0.00428121
-0.0232433
-0.0296355
0.030645
0.0319769
0.0209656
-0.0177538
0.00077309
0.0231485
0.1594
0.165492
0.164924
0.109438
0.206973
0.314272
0.356416
0.302042
0.184755
0.21751
0.265833
0.0608425
0.0737136
0.0613236
0.0825077
0.0810484
0.0194981
0.0125455
0.0142867
0.0312067
0.0168971
0.0176756
0.0194508
0.0228761
0.022642
0.0284136
0.0226374
0.217203
0.201092
0.167766
0.168578
0.175191
0.197274
0.219181
0.219724
0.231277
0.229326
0.220525
0.227221
0.23213
0.0135569
0.0167832
0.00613353
0.0212254
0.0332965
0.0316452
0.0271278
0.281885
0.125432
0.242173
0.060835
-0.158532
-0.0677165
0.526033
0.615374
0.633837
0.638969
0.574005
0.570995
0.627917
0.673863
0.413231
0.528611
0.471369
0.628892
0.631867
0.661328
0.539601
0.334348
0.018041
0.0880181
0.369194
0.180257
0.221266
0.124938
0.111506
0.227892
0.230063
0.274303
0.327584
0.389952
0.395657
0.305634
0.388142
0.245558
0.338073
0.354062
0.397081
0.316486
0.298642
0.318309
0.342971
0.310094
0.337432
0.2771
0.277749
0.279357
0.295089
0.281605
-0.92082
-0.864978
-1.67414
-1.33819
-1.02301
-0.382388
-0.18331
-0.222207
-0.0797982
0.101054
0.154171
0.201334
0.189112
0.113643
0.160076
0.151437
0.218043
0.216002
0.189931
0.128913
0.0467476
0.280399
0.27428
0.295515
0.314981
0.300504
0.313107
0.214418
0.223682
0.222191
0.223268
0.211465
0.206711
0.104799
0.0888609
0.11504
0.0800488
0.0452558
0.0766753
0.0310722
0.0186878
0.0141872
0.0255142
0.0214525
0.0385579
0.300231
0.318761
0.125356
0.2351
0.0177553
-0.0635182
-0.102571
0.0842903
0.184773
0.191963
0.445155
0.540766
0.484956
0.508053
0.399355
0.432222
0.577038
0.450797
0.54516
0.46926
0.536085
-0.666699
-0.7784
-0.822403
-0.412358
-0.530331
-0.603157
-0.730741
-0.835941
-0.727967
0.151625
0.17448
0.168142
0.147422
0.15769
-0.462047
-0.262618
-0.381633
-0.0527856
0.35364
-0.00441985
0.183918
0.0792815
0.279023
)
;

boundaryField
{
    wall-4
    {
        type            zeroGradient;
    }
    velocity-inlet-5
    {
        type            zeroGradient;
    }
    velocity-inlet-6
    {
        type            zeroGradient;
    }
    pressure-outlet-7
    {
        type            fixedValue;
        value           uniform 0;
    }
    wall-8
    {
        type            zeroGradient;
    }
    frontAndBackPlanes
    {
        type            empty;
    }
}


// ************************************************************************* //
