/*--------------------------------*- C++ -*----------------------------------*\
  =========                 |
  \\      /  F ield         | OpenFOAM: The Open Source CFD Toolbox
   \\    /   O peration     | Website:  https://openfoam.org
    \\  /    A nd           | Version:  6
     \\/     M anipulation  |
\*---------------------------------------------------------------------------*/
FoamFile
{
    version     2.0;
    format      ascii;
    class       surfaceScalarField;
    location    "4";
    object      phi;
}
// * * * * * * * * * * * * * * * * * * * * * * * * * * * * * * * * * * * * * //

dimensions      [0 3 -1 0 0 0 0];

internalField   nonuniform List<scalar> 
1300
(
3.75095
5.62643
-6.50002
3.75095
-6.3205
5.62643
-5.75055
5.75055
-1.69216
1.69216
1.89299
1.85796
-5.60999
5.60999
-5.50025
5.50025
-3.00961
3.00961
-5.24552
5.24552
-5.12589
5.12589
4.64748
-4.64748
-5.22639
5.22639
-2.20167
2.20167
-6.15838
6.15838
3.21854
-3.21854
-5.54504
5.54504
-0.79988
0.79988
-0.510304
4.26126
3.24065
3.24065
-2.81666
2.81666
-4.90498
4.90498
6.23289
-6.23289
9.77942
-9.77942
-3.2794
-3.32085
1.32626
-8.06467
-4.99424
-4.99424
-8.44081
8.44081
-2.81438
2.81205
3.1593
-3.1593
-1.28729
1.28729
-5.41155
-0.338995
-5.41155
6.09516
-0.344609
6.09516
-1.81472
0.122558
-1.81472
4.39125
-4.39125
1.55271
0.139447
1.55271
3.13137
-3.13137
-1.88693
3.77992
1.86402
-1.87288
6.13413
-1.87808
3.73604
-4.99239
4.99239
-5.69195
0.0819576
-5.69195
5.58777
0.0222245
5.58777
-5.40944
5.40944
-5.54262
0.0423676
-5.54262
5.51869
-0.0184431
5.51869
3.22283
-3.22283
-3.04917
0.0395549
-3.04917
2.987
0.0226135
2.987
0.354064
5.27237
-5.98049
8.79254
-5.27237
0.0268446
5.20823
0.0372941
5.20823
-5.12648
0.000589158
-5.12648
5.11257
0.013319
5.11257
4.60772
0.0397613
4.60772
-4.80144
0.153962
-4.80144
-3.29462
-3.26446
-5.31433
0.0879397
-5.31433
-2.18569
-0.0159781
-2.18569
2.12951
0.0721643
2.12951
-3.8666
3.8666
-6.43314
0.274755
-6.43314
3.12021
0.0983306
3.12021
1.88956
1.86139
5.64051
-5.64051
2.42197
-5.55125
0.00620718
-5.55125
-5.54882
-4.2306
5.54882
-0.00377387
-1.19768
0.397797
-1.19768
3.20622
0.0344293
3.20622
2.97979
0.00720549
-2.97979
0.163133
3.65539
-3.65539
2.13015
0.686508
2.13015
-5.53006
5.53006
5.05142
0.0611526
-5.05142
0.146439
6.16656
0.0663332
6.16656
-6.21047
-0.0224193
-6.21047
3.3215
-6.64235
-3.29194
5.11749
0.108903
-5.11749
0.123248
3.19756
-0.0382576
3.19756
-3.11372
3.11372
-3.15143
-0.00787739
-3.15143
-1.3828
0.0955133
-1.3828
1.47596
-0.188669
1.47596
-5.0121
-0.399449
-5.0121
-6.35533
-0.0778041
6.35533
-0.260177
2.87008
-2.87008
-1.96037
0.145658
-1.96037
-4.62532
-0.386784
4.62532
-0.234073
-4.1504
-0.24085
-4.1504
-3.14294
-0.0084881
3.14294
-0.0115677
3.13626
0.0699623
-3.13626
0.00488644
-1.86567
3.72707
-1.88528
3.7493
-4.76819
-0.224193
-4.76819
5.0638
-0.0714169
5.0638
5.87969
0.278691
-5.87969
0.18774
5.52802
0.0597493
5.52802
-5.36447
-0.0449721
-5.36447
5.4525
-0.0430589
5.4525
5.54234
-0.0143151
-5.54234
-0.000283515
5.52968
-0.0109826
5.52968
3.26658
-0.0437474
3.26658
-3.20238
-0.0204492
-3.20238
3.11763
-3.11763
3.11169
0.00594295
-3.11169
0.0625191
-11.1241
11.1017
-0.0370624
-11.087
5.17116
5.17116
3.64879
0.958927
3.64879
-4.99405
0.192612
-4.99405
3.27761
-6.56956
3.2672
-6.56182
3.31758
-11.3822
3.31924
-6.58371
5.45517
-5.45517
5.37686
0.0783145
-5.37686
0.0625232
-2.18482
-0.000874815
-2.18482
-3.72025
-0.146359
-3.72025
4.07603
-0.209424
4.07603
-3.12334
3.12334
-3.10116
-0.0221814
3.10116
0.0190524
5.50965
0.0200287
-5.50965
-0.041602
1.40036
0.152356
-1.40036
0.202679
3.83842
-0.183029
3.83842
-3.4792
-0.176188
-3.4792
-2.17521
-0.0096116
2.17521
-0.0450508
-5.77215
0.242087
-5.77215
-11.1877
0.100712
-11.1504
-6.10976
-6.10976
2.33105
11.1236
-3.19573
-0.0066514
3.19573
0.00183444
3.14412
-0.0207752
-3.14412
0.0303953
-3.10863
-0.0089999
3.10863
0.00509065
-1.67893
0.296127
-1.67893
-2.25591
2.25591
-1.85583
-0.400072
1.85583
-0.379874
3.07021
-0.200124
3.07021
2.06811
0.0613996
-2.06811
0.107731
-4.05646
-0.0939332
-4.05646
5.1608
-0.0969999
5.1608
-3.35025
-0.128951
3.35025
-0.0836768
-0.032397
11.1341
-5.13877
0.0122903
5.13877
-11.2004
11.2127
-2.461
0.782065
2.461
1.18779
5.25825
0.27181
-5.25825
0.2642
5.47353
-0.0210352
-5.47353
0.0183607
-3.54033
-0.179916
-3.54033
-4.3887
-0.379497
4.3887
-0.312668
-11.4054
-0.215614
11.621
-11.3921
5.98777
0.178794
-5.98777
11.3915
-2.59283
-0.277254
2.59283
-0.33692
3.17816
-0.107957
3.17816
3.98665
-0.148227
-3.98665
-0.0698165
-5.30202
-0.0624482
5.30202
-0.141213
-3.34967
-0.190659
3.34967
-0.171508
-4.20813
4.24256
1.926
-3.31578
-3.32657
-7.54638
1.77814
1.94893
4.20011
-7.01307
-4.36918
-6.88982
7.35615
-7.09195
-9.45515
9.49491
7.22612
-7.46697
-5.8069
5.82595
6.38741
-6.39898
1.84445
1.93548
10.7058
-10.6239
-10.1867
9.96255
10.2129
-10.1706
10.5399
-10.5848
-12.1815
12.1605
-5.68688
5.72643
-6.64426
6.62381
-6.71791
6.63424
-3.22498
-3.33684
9.07098
-8.98304
11.6911
-11.6849
-11.3013
11.5761
3.26858
0.973984
3.33854
-1.86443
3.70888
-1.87161
3.79761
3.30151
-6.52649
3.26805
-6.59462
6.00312
5.688
-5.99934
-1.54704
-5.90611
5.86785
-5.80058
5.80567
9.94378
-10.2828
-1.88494
3.82042
-1.86436
3.81329
-3.38614
-2.42076
3.28781
0.912304
5.54332
3.52766
-5.65222
-1.2376
-7.52919
7.38096
-7.76191
7.58572
-0.597656
5.84819
-5.25053
4.30732
-1.4839
7.33209
5.87225
6.06486
5.8779
-5.60609
1.21405
-6.46458
-6.31815
-2.6345
2.78016
2.68803
-2.54858
5.99139
1.23473
5.75732
-5.56555
-1.90142
-5.65948
3.88949
1.93646
3.86731
4.09829
2.28912
4.08981
3.03842
-3.04186
0.0034452
-3.08338
6.1218
0.778552
-5.50415
-4.59184
7.03319
3.67266
7.05542
-7.23052
-3.39337
-7.04278
-6.02928
-4.15746
-6.40877
6.43304
3.52951
6.36162
-7.90568
7.76447
6.74267
3.47026
6.72422
-6.82069
-3.34986
-6.82098
10.2128
-2.62451
-7.58831
-6.78641
-5.39512
6.82947
3.71039
7.45108
4.70941
7.46944
3.53475
6.67807
-7.24514
1.85002
-3.82145
-1.86543
-3.75893
3.6849
2.04153
3.70751
-4.16796
-2.47629
-4.17462
-4.22248
-2.49543
4.26623
2.35758
-4.22052
-3.54139
4.34947
2.28476
2.99996
-7.36915
3.58374
-6.92058
-6.31805
-2.66499
-6.25552
3.95308
2.5619
-6.51498
-2.5734
10.7151
-5.02706
9.16802
-7.24743
-4.43748
-7.28903
-8.6119
-2.68944
-8.6897
-5.48794
5.30803
-5.48732
5.2779
10.3288
-5.63759
-4.69124
-3.84046
-2.55852
3.83557
-0.497031
-3.80302
3.80647
-0.0941427
3.70347
4.67745
4.18042
-3.85874
-1.94184
-3.82835
3.86323
1.94245
3.85423
8.35088
1.5929
8.00627
-6.67832
-3.60445
-7.07777
6.60547
-6.50996
3.01825
-3.02786
5.05059
2.53514
-4.86756
-2.66163
5.86748
-2.85761
-3.00987
-12.316
11.2581
1.05787
-4.98391
-0.676585
0.123294
-5.67058
-3.78457
5.51662
0.548247
11.8064
8.02181
-5.49307
5.73516
6.12793
6.18908
-0.129062
4.915
-4.13294
3.01826
-1.43371
-1.58455
5.42844
-5.81522
-1.64933
-5.19102
3.54168
-0.0578998
2.29107
-1.89328
-2.12228
-0.512226
-2.01455
1.70334
0.984685
1.8557
0.955572
1.82459
-2.8238
0.601435
2.22237
-1.86823
-1.94715
-3.3263
-0.960007
4.2863
5.45415
1.92681
-5.38434
-0.275147
2.8211
-2.74894
-0.631649
-2.69465
2.05059
-2.68224
-3.30583
-1.86029
5.16611
-3.35366
-0.474686
3.37444
0.492876
-3.77869
-2.12742
3.78657
0.303238
-2.96506
6.09236
-3.1273
-4.9069
2.56894
3.55286
4.5054
-4.75554
2.39346
2.36208
-1.20268
6.02502
1.0304
6.08477
-9.08899
5.69562
7.66208
3.91401
-7.94077
0.897986
-8.19101
9.55253
-8.31639
-1.23613
4.94071
4.61182
5.18336
5.14548
-3.78319
8.96655
-1.25687
-7.05952
9.44788
-5.53387
5.77906
-11.3129
-10.9245
3.86501
-6.70774
8.41905
-1.71131
-2.49588
-5.4098
9.20362
-0.854818
-8.3488
5.5068
-5.32111
-5.31695
10.6381
-7.94562
8.66681
-2.5395
-6.12731
-6.6044
-3.98042
6.66685
1.09761
-9.70408
11.5541
-3.02602
5.8528
0.871424
5.84182
3.83368
-5.88575
2.05207
4.11194
-6.65144
2.47734
-8.36309
-4.74406
9.43776
-4.69371
-7.40905
-6.48404
-0.925009
2.0266
9.5275
-6.73601
5.19181
1.5442
3.33719
0.517041
-3.34313
-0.4158
0.306087
4.35901
-4.6651
4.0136
4.02081
3.35928
0.999727
3.83373
2.03412
-3.83556
-0.339055
-3.91121
1.41578
-1.55363
-3.32336
4.73914
-3.74494
0.42158
-2.66888
-3.45749
6.12637
-4.53431
3.04158
3.05078
4.98403
-4.74718
1.28969
-2.3657
-2.38148
2.45525
-4.00888
1.88018
2.85896
4.16494
0.623552
4.8097
4.62806
-7.3716
0.45102
8.15573
-6.91813
1.62626
5.84318
-6.81807
0.334028
-5.92149
1.14186
-6.16892
-5.37312
6.0739
-8.76334
-5.23903
7.94394
0.0623234
-7.68377
-1.00593
-3.83655
-1.65139
-4.02721
-1.59495
-3.89238
-5.37814
-1.26929
-4.10885
4.03873
-4.14897
-2.2598
4.46164
0.816261
-4.86922
4.59197
-4.65614
4.54818
0.189241
3.61723
4.36966
1.81114
-2.41455
4.22569
-6.90451
8.49741
-9.78015
2.87564
3.16992
-6.77437
-6.61023
3.81543
2.79004
3.62677
6.36361
-8.34449
1.98089
-6.87842
7.66353
-0.785103
-10.4827
3.60423
-4.11904
2.79801
0.220244
2.79713
0.748173
2.29921
-3.04738
-2.27969
-2.32474
-2.19365
-3.13863
5.33229
1.03795
-3.21517
2.17722
-3.13269
4.17064
-0.182611
-3.03256
5.07211
-2.7729
5.29235
-3.3153
1.97705
3.09458
5.22621
-2.13162
4.16136
-1.62623
1.63891
-3.77053
-1.49973
-2.9135
4.95503
-3.21287
3.63445
-0.289936
3.92438
-3.93818
1.08056
-0.578893
3.44191
3.60505
4.03923
-3.0395
2.74117
-4.36739
-1.02936
-3.74384
-0.88488
-2.99806
-4.11522
7.11329
4.83493
-7.83299
-4.77492
7.19789
-2.42297
6.07374
-5.28147
-0.792274
-3.27021
-3.23974
2.97409
1.94091
8.01466
-0.370471
-4.911
-4.50341
-3.31561
2.38141
0.636842
-3.21533
4.2732
3.09204
-0.800964
0.508063
1.34764
1.90452
-1.39646
0.342961
1.56156
-1.55032
2.07748
0.74362
-2.13888
0.124336
-1.19123
3.24182
1.03114
-2.01583
0.619364
1.2766
-2.71031
3.92558
-1.57607
-2.34952
5.20219
1.54244
-3.11851
3.64857
-3.70647
2.03894
-2.99894
-1.07957
-4.78605
-3.55132
-2.3442
4.52142
-2.98808
4.9149
1.2156
-4.63975
5.85535
-3.33806
1.47777
-2.84184
3.58546
-0.832576
-2.00926
2.61363
2.55249
-2.7385
0.0438515
-0.124871
2.14338
-2.26825
-0.538855
-2.40709
-4.42936
4.7326
-2.08544
4.4789
2.14024
-1.97877
6.45768
1.76257
-3.74134
-3.14433
-3.61901
-1.37926
3.12614
-0.897717
-5.92326
-7.02502
5.93758
0.147194
-8.87815
10.0215
-1.14338
-5.2055
-0.490124
5.43083
-7.32373
0.672292
-4.84639
5.17514
6.20554
6.35273
-8.25346
-0.0953429
-4.72395
1.27047
-5.99442
5.88229
-2.6785
6.54351
-7.10431
4.84451
-6.28805
5.30737
-0.687046
5.47344
-3.42137
2.11487
-6.0953
-4.99768
7.00078
-3.53053
7.87221
-4.08152
11.9537
-7.10753
6.91959
5.03414
-1.37061
-5.91842
-6.86301
5.4924
0.0565776
5.89839
4.74979
-2.71567
4.41074
2.07444
-4.44014
-1.93444
-6.27066
1.83052
-3.21989
-1.85377
3.68429
3.13026
3.6473
1.30281
-3.2315
6.47853
-7.40354
-1.78482
-3.5883
6.7593
-1.26689
3.84711
-7.43541
-2.32182
5.3698
-0.901438
-4.46836
0.267792
-5.50682
2.65565
-8.16246
6.10769
-7.11362
1.57138
-5.69042
-3.29784
-3.63476
-1.32942
-3.32672
-4.66935
3.33993
-1.06512
3.52684
-5.52169
4.62025
-2.14184
5.48177
-3.44328
-0.583933
3.61479
0.933396
6.41517
-1.96357
-4.64667
0.295749
3.88729
-4.18304
2.67716
-6.07879
-2.1915
2.51969
2.6825
-6.06137
-0.712997
-5.35966
-2.65478
5.44482
4.54311
9.37804
1.03355
5.89558
-0.450763
6.92913
3.176
2.79613
-3.63821
5.6191
3.47507
6.35072
-0.854081
2.83113
1.94305
1.92707
0.821865
2.23268
1.37236
3.31325
0.265867
-2.05887
4.8556
-8.17121
-0.0554025
-7.21228
2.28262
6.20072
-3.9181
3.17363
-2.53679
-1.0094
-0.807745
-1.45596
2.26371
-2.39229
-2.25693
-0.695365
-1.59179
2.21116
1.65002
-1.51579
-0.876499
0.267638
-3.81895
2.73131
-2.68745
-0.134969
5.72038
-2.5211
0.252843
-1.04332
-2.15424
-2.66647
2.54214
6.13719
0.320484
3.00989
5.05308
2.92566
0.209997
4.35481
-6.06612
-4.00828
-6.16146
-0.279166
5.15166
1.95225
7.57525
6.98639
5.7195
-1.71592
-9.11945
7.28985
-1.67075
6.50475
-2.03639
-6.12608
6.518
1.97941
-6.58032
-0.533301
-6.65938
-8.33013
-0.484093
5.10434
-5.93107
5.34714
3.69575
0.413098
-2.755
-0.879759
3.15507
-0.358946
6.57018
-2.03699
-8.10383
10.1408
-4.16373
4.10833
1.07259
3.20062
3.33629
0.799502
-7.30433
-11.2224
-1.53399
-1.17632
-3.88351
0.402792
-2.05282
5.52275
-1.41442
4.73048
8.7264
7.71699
-3.29179
-4.54121
5.71476
-0.984286
6.73271
)
;

boundaryField
{
    wall-4
    {
        type            calculated;
        value           uniform 0;
    }
    velocity-inlet-5
    {
        type            calculated;
        value           uniform -3.75095;
    }
    velocity-inlet-6
    {
        type            calculated;
        value           uniform -5.62643;
    }
    pressure-outlet-7
    {
        type            calculated;
        value           nonuniform List<scalar> 8(6.50002 6.3205 6.60025 6.73841 6.55908 6.61344 6.54481 6.63683);
    }
    wall-8
    {
        type            calculated;
        value           uniform 0;
    }
    frontAndBackPlanes
    {
        type            empty;
        value           nonuniform 0();
    }
}


// ************************************************************************* //
