/*--------------------------------*- C++ -*----------------------------------*\
  =========                 |
  \\      /  F ield         | OpenFOAM: The Open Source CFD Toolbox
   \\    /   O peration     | Website:  https://openfoam.org
    \\  /    A nd           | Version:  6
     \\/     M anipulation  |
\*---------------------------------------------------------------------------*/
FoamFile
{
    version     2.0;
    format      ascii;
    class       volVectorField;
    location    "4";
    object      U;
}
// * * * * * * * * * * * * * * * * * * * * * * * * * * * * * * * * * * * * * //

dimensions      [0 1 -1 0 0 0 0];

internalField   nonuniform List<vector> 
918
(
(0.982809 -0.013568 0)
(0.00486411 2.96642 0)
(-0.0236288 1.72748 0)
(0.958529 0.0315517 0)
(-0.0285497 1.68723 8.48286e-22)
(-0.00709162 2.94867 -1.9463e-18)
(1.16927 1.44348 6.60023e-19)
(0.567538 0.305916 -7.679e-21)
(0.996297 -0.00668399 0)
(0.0024593 1.68824 0)
(0.0141317 1.67249 0)
(0.911839 0.026442 0)
(0.0119669 2.93046 0)
(-0.0244032 2.84104 0)
(-0.0343005 3.15828 1.22668e-18)
(0.0185856 1.65745 -1.99299e-20)
(0.711428 0.143798 5.5592e-19)
(0.281997 1.95803 6.54236e-19)
(0.993185 0.0601922 0)
(0.00874111 1.68373 0)
(0.330284 0.379643 -5.10758e-19)
(0.964526 0.0049739 0)
(0.966124 -0.00461576 0)
(0.958312 0.0329991 0)
(0.850775 0.0291424 0)
(0.0362394 2.67059 0)
(-0.00682872 2.91963 6.67076e-19)
(-0.00937009 1.72634 0)
(-0.00434087 1.76053 0)
(-0.00316888 1.74671 0)
(-0.00124111 1.79055 0)
(-0.00933098 1.71168 -6.72785e-22)
(-0.000919554 1.65649 0)
(-0.021424 2.98812 -6.8355e-23)
(-0.0163175 3.00531 1.51065e-18)
(0.00231129 3.00018 0)
(0.961444 0.010195 0)
(0.335828 0.441355 -1.42619e-19)
(1.05108 1.53109 -7.36757e-19)
(1.18291 1.23873 7.58435e-19)
(0.917114 1.72775 -1.52518e-19)
(1.01395 1.69135 9.30035e-19)
(0.60672 0.341723 7.49223e-21)
(0.577228 0.291757 0)
(1.28338 0.598767 0)
(0.596476 0.352085 3.34753e-20)
(0.538505 0.331916 -3.47334e-20)
(0.94668 0.0100984 0)
(0.995565 -0.00218972 0)
(0.999009 0.00332967 0)
(0.957319 -0.0230806 0)
(0.992422 -0.00111078 0)
(1.00065 0.00297887 0)
(0.0254289 1.63077 -4.69591e-19)
(0.000484749 1.76178 0)
(0.0636165 1.73341 0)
(-0.00659617 1.76263 0)
(0.0195511 1.66954 0)
(0.0107553 1.66709 0)
(0.0111109 1.7229 0)
(0.0130399 1.67369 0)
(0.00798432 1.72364 0)
(0.0209828 1.66862 0)
(0.971638 -0.0135678 0)
(0.955467 0.0131623 0)
(0.915463 0.00376381 0)
(0.930622 0.0239965 0)
(0.904272 0.00568951 0)
(0.014379 3.00005 7.16901e-19)
(0.01156 3.00798 0)
(0.00593086 3.00287 0)
(0.0117877 2.99571 8.03705e-24)
(0.00939598 2.95897 -1.0655e-18)
(0.0124774 2.98084 0)
(0.0133689 2.90406 0)
(-0.0076937 2.94457 1.45738e-24)
(-0.0179857 2.84221 0)
(-0.00291567 2.94522 0)
(-0.0305272 2.81733 0)
(0.208981 3.45462 0)
(-0.106155 3.54158 0)
(0.112422 3.24011 -1.13624e-18)
(-0.0126483 2.99016 0)
(0.00304472 1.74852 0)
(0.0106771 1.71748 1.96624e-20)
(0.0227876 1.66424 -2.5092e-20)
(0.733806 0.17872 -1.93007e-19)
(0.708763 0.122587 -1.96319e-19)
(0.734603 0.213672 -5.83937e-19)
(0.669255 0.192577 -3.87672e-19)
(0.18977 1.34075 0)
(0.369776 2.03206 -6.6506e-19)
(0.491802 2.01128 1.13495e-18)
(0.978551 0.0494544 0)
(0.941986 0.0387451 0)
(0.999119 -0.00614652 0)
(0.981341 0.0114786 0)
(1.03492 0.055925 -1.18438e-18)
(0.99331 0.0217147 9.17804e-19)
(-0.000411032 1.73428 0)
(-0.0125224 1.68924 0)
(0.00039631 1.7464 0)
(0.0147216 1.73372 0)
(0.0294452 1.6767 0)
(0.363256 0.427636 1.46381e-19)
(0.467787 0.355712 0)
(1.01674 0.00792129 0)
(0.99111 0.00678444 0)
(0.925777 -0.00493271 0)
(0.911368 0.013186 0)
(0.911436 0.000515923 0)
(1.10224 -0.0070705 0)
(0.850855 0.0789252 0)
(0.768235 0.0551269 7.88663e-19)
(-0.0524117 2.84244 3.23771e-19)
(0.0222513 2.95084 0)
(0.0553693 2.92074 0)
(-0.00415471 2.77192 0)
(-0.0134848 2.99234 6.20063e-19)
(-0.0299071 2.8976 0)
(-0.0107253 2.99102 -1.94629e-18)
(-0.00896386 2.93041 6.75721e-19)
(0.00228422 1.77126 0)
(0.00357934 1.7616 0)
(-0.00738776 1.71972 3.87584e-24)
(-0.00781846 1.70418 0)
(-0.0133152 1.65245 0)
(0.991857 0.0110662 0)
(0.96494 0.00348711 0)
(0.93715 -0.0163405 0)
(0.983028 0.0163772 0)
(0.953069 0.00369576 0)
(0.49977 0.792537 1.61211e-19)
(0.267858 0.71691 0)
(0.610508 0.773953 -6.60517e-21)
(0.469886 0.4725 0)
(1.10413 1.30786 -2.1103e-19)
(1.24292 0.98782 4.34129e-19)
(0.580393 2.02001 0)
(0.750008 1.91054 0)
(0.809231 1.90443 0)
(0.593 1.10183 -3.42691e-19)
(0.654247 0.315439 0)
(0.638738 0.234255 1.0473e-19)
(1.16003 1.08002 0)
(1.21438 0.871935 0)
(1.25289 0.794946 -3.78625e-19)
(1.23078 0.654238 0)
(1.28528 0.424207 4.7348e-20)
(0.979152 -0.0109114 0)
(0.988511 0.00406766 0)
(0.950801 -0.0209451 0)
(0.984618 0.0101988 0)
(0.974339 0.00682209 0)
(0.950417 0.00451869 0)
(0.986852 -0.00149781 0)
(0.993649 0.00429152 0)
(0.997749 0.00400491 0)
(0.0242566 1.65456 2.53144e-19)
(0.0642191 1.57966 0)
(-0.0150415 1.67606 4.28309e-19)
(-0.0325746 1.60074 -3.72926e-19)
(0.201759 1.91884 -5.5285e-19)
(0.0568046 1.79446 0)
(0.127315 1.7975 0)
(0.0177703 1.73947 0)
(-0.00364065 1.67606 0)
(0.00178349 1.69551 -1.05606e-21)
(-0.00496192 1.65496 0)
(-0.00469115 1.71869 -5.16053e-20)
(-0.0191831 1.66562 1.04906e-19)
(-0.0237998 1.73667 0)
(-0.00644737 1.73924 0)
(-0.0225161 1.67628 0)
(0.00952601 1.72117 0)
(0.00645294 1.67983 0)
(1.01173 -0.00569418 0)
(0.979732 0.0184121 0)
(1.01558 0.0152877 0)
(0.964291 0.027548 0)
(0.938421 3.85863e-05 0)
(0.974118 -0.00235659 0)
(0.969928 0.0121552 0)
(0.94605 -0.0128375 0)
(0.0134443 3.06295 -6.28577e-21)
(0.0177057 3.0554 0)
(0.0148163 2.96865 0)
(0.0141236 2.8752 0)
(0.676229 3.71701 0)
(0.904994 3.04038 8.72892e-19)
(0.081798 3.09763 0)
(-0.0153903 2.88538 0)
(-0.00515055 1.74705 0)
(0.00633747 1.74823 0)
(0.00252569 1.74611 0)
(0.00645039 1.78662 2.58269e-21)
(0.00562488 1.74925 0)
(0.00338249 1.77081 0)
(-0.0279105 1.66735 -4.66973e-21)
(-0.025861 1.71554 4.34471e-20)
(0.0167257 1.72894 2.54889e-20)
(0.00613694 1.67239 0)
(0.766226 0.134569 2.98241e-19)
(0.733165 0.0586666 -2.86637e-19)
(0.184541 1.42533 0)
(0.297867 1.3207 -2.12657e-19)
(0.132177 1.4222 -6.27188e-19)
(0.157041 1.3822 6.26531e-19)
(0.940929 -0.00183828 0)
(0.972735 -0.00233088 0)
(0.97186 0.00781251 0)
(0.939899 0.00606775 0)
(0.0103529 1.72148 0)
(-0.0101515 1.72245 0)
(-0.00511172 1.67357 0)
(0.555187 0.379711 2.98723e-19)
(0.504334 0.399371 -3.68263e-19)
(0.505975 0.341133 0)
(1.20103 0.0837474 2.45839e-21)
(1.19814 0.05582 0)
(1.12785 0.0444193 0)
(1.04418 0.0164997 0)
(0.785787 0.0897282 0)
(0.800724 0.064841 -1.26129e-18)
(0.761669 0.0122344 4.79894e-19)
(-0.0112046 2.96561 4.66339e-19)
(-0.0579498 2.83573 6.50122e-20)
(0.0129991 3.05231 -1.35713e-20)
(0.0135837 3.0386 5.26288e-19)
(-0.0136692 2.9975 2.25412e-20)
(-0.0131705 2.95152 -9.09224e-23)
(-0.0155204 3.01204 -4.2835e-19)
(0.0164352 3.02223 3.15132e-19)
(0.0124762 3.03065 -5.35061e-19)
(1.00346 0.0205159 0)
(1.00696 0.00748514 0)
(0.964921 0.0174916 0)
(0.978773 -0.0175566 0)
(0.987359 -0.00557802 0)
(0.951267 -0.0230785 0)
(0.973013 0.0130287 0)
(0.977013 -0.000258933 0)
(0.941573 0.00963895 0)
(0.432703 1.00632 3.71681e-19)
(0.379734 1.07191 0)
(0.595362 0.848483 9.08238e-20)
(0.638864 0.999812 6.18693e-19)
(0.651479 0.856777 -2.83803e-19)
(0.537741 0.645806 5.02319e-19)
(0.508024 1.2922 1.67639e-18)
(0.495316 1.17898 3.37531e-19)
(0.693158 0.253151 4.17817e-19)
(0.677346 0.268413 9.99137e-20)
(0.652722 0.221773 2.04383e-19)
(1.26384 0.481594 2.3635e-19)
(1.29991 0.273881 2.60302e-19)
(-0.0171024 1.66041 1.74292e-19)
(0.00783183 1.62758 0)
(1.06581 0.0270938 0)
(1.04296 0.0195262 0)
(1.01737 -0.00592096 0)
(0.0177229 3.07627 0)
(0.00284675 2.94245 8.5865e-19)
(0.0141109 2.95621 0)
(0.00497352 2.84987 -8.47678e-19)
(0.0206791 3.08723 2.03271e-19)
(0.013291 3.0751 0)
(0.392446 1.34742 -2.05017e-19)
(0.910027 2.23728 5.98675e-19)
(0.347629 1.57325 -1.30923e-18)
(0.0216192 2.97593 -2.99351e-19)
(0.0516502 3.00932 0)
(-0.0253092 2.85021 0)
(0.000676152 1.70867 -8.84603e-21)
(-0.00217844 1.7391 -7.31474e-20)
(0.0221076 1.68646 -9.93502e-21)
(0.262887 1.37964 6.7044e-19)
(0.347924 1.29319 -4.6593e-19)
(0.0526055 1.58985 4.18072e-19)
(0.0862721 1.50001 -4.99262e-19)
(0.0888579 1.46454 4.60551e-20)
(0.0272655 3.08784 -1.14755e-18)
(0.0300682 3.10215 1.28488e-18)
(-0.0351277 2.98347 5.54094e-19)
(-0.0226115 2.95999 -5.20208e-19)
(-0.0530952 2.86822 -5.64456e-19)
(0.018114 3.09428 -1.48023e-18)
(0.0269253 3.10369 1.52716e-18)
(0.560893 1.19791 0)
(0.602761 1.12578 -1.55952e-18)
(0.602983 1.01186 7.04948e-19)
(0.415649 1.29616 9.16185e-19)
(0.460427 1.19426 -1.43266e-18)
(1.27937 0.163745 -3.5268e-20)
(1.27706 0.264868 0)
(1.28172 0.112841 8.88564e-20)
(-0.00433677 1.70433 -1.24479e-21)
(0.0143254 1.68637 0)
(0.0184191 1.64812 0)
(0.319896 1.3433 -2.41228e-19)
(0.384319 1.33132 -5.89908e-19)
(0.405915 1.23657 1.06753e-18)
(1.01294 -0.0538612 0)
(0.997487 -0.0529258 2.36963e-19)
(-0.00106523 1.77174 0)
(-0.00349493 1.77711 0)
(0.978901 -0.0118651 2.21981e-21)
(0.999903 -0.0183471 4.4738e-19)
(0.0045644 1.77657 -3.43527e-21)
(0.00464344 1.77601 0)
(0.0706948 3.22313 2.26456e-20)
(0.310221 3.57567 0)
(1.07832 0.673259 1.01722e-20)
(1.01425 -0.0102805 -1.71742e-21)
(1.01134 0.0111304 0)
(1.00306 -0.0105737 -5.93861e-21)
(0.0420282 1.8517 0)
(0.0698709 1.68994 0)
(0.00742508 1.7941 0)
(0.0122771 1.75675 7.02442e-20)
(0.0247782 1.74823 3.86734e-20)
(0.996601 -0.00224897 -1.59994e-21)
(1.04708 -0.0052782 0)
(1.0618 0.0331444 0)
(-0.0017356 1.75168 0)
(-0.018292 1.78992 0)
(-0.00945841 1.78747 0)
(0.236576 1.96155 -2.55061e-19)
(0.994024 -0.0521691 0)
(0.979933 -0.0458099 0)
(1.01186 0.00106992 3.01557e-19)
(1.00622 -0.00533431 -3.45731e-19)
(0.995532 0.0074098 0)
(-0.0141381 1.74811 0)
(0.00325789 1.76006 0)
(-0.00877594 1.75316 0)
(-0.00607075 1.78948 0)
(0.00073721 1.77606 0)
(-0.0059029 1.78276 0)
(1.02324 0.00643442 0)
(1.02031 -0.0060904 -1.45282e-21)
(0.716806 1.59289 3.73314e-19)
(1.02605 -0.00960522 -3.01575e-19)
(1.01515 0.0175128 3.67899e-19)
(0.995323 0.00742862 0)
(1.01685 -0.00288007 2.82809e-19)
(0.975844 -0.0153108 -3.65391e-19)
(0.977753 -0.00994739 0)
(-0.0175651 1.79134 0)
(-0.00822597 1.78003 7.95418e-21)
(-0.00809899 1.7856 -3.58089e-21)
(1.1874 0.263938 8.18222e-20)
(1.10577 0.0625529 0)
(0.127323 3.05111 -5.71699e-19)
(0.0829586 2.88207 -4.86383e-20)
(0.217315 3.23007 7.42279e-19)
(0.165936 3.2858 6.72387e-20)
(0.182582 3.31745 0)
(0.0373498 3.13366 1.08806e-19)
(0.12115 3.16769 5.56146e-19)
(0.106728 3.22051 -2.14177e-19)
(0.0540125 3.09594 0)
(0.707638 0.342857 0)
(0.641871 0.406731 0)
(0.992438 0.713892 -5.70934e-20)
(1.0851 0.834911 9.98752e-20)
(1.15084 0.566841 0)
(1.18093 0.534595 0)
(1.02791 -0.00665085 -5.57489e-19)
(1.02838 -0.00358316 6.87747e-19)
(1.03299 0.0124856 0)
(1.02718 0.00895493 0)
(1.00599 0.00893311 0)
(1.01199 0.00131148 0)
(1.03745 -0.0210824 0)
(1.03095 0.00452384 0)
(1.03306 0.0227755 0)
(1.03998 0.0227895 0)
(0.0399707 1.85404 0)
(0.0238563 1.85941 0)
(0.0431162 1.86741 0)
(0.0369607 1.88206 0)
(0.0899135 1.67428 0)
(0.105254 1.66811 -2.7038e-19)
(0.0384588 1.72072 0)
(0.00768098 1.70084 1.44909e-19)
(0.0377376 1.7644 -1.28684e-19)
(-0.00277046 1.79236 0)
(-0.0142122 1.78435 0)
(0.0156713 1.79205 0)
(0.0060889 1.80801 0)
(-0.00791024 1.75385 -4.09232e-20)
(0.0160059 1.75907 4.73708e-20)
(0.0129774 1.76891 5.02335e-20)
(0.0177789 1.76817 0)
(0.0187722 1.77628 -7.36059e-20)
(0.00502444 1.77313 -5.33457e-20)
(0.000115269 1.74193 3.01656e-20)
(0.0195046 1.75856 -6.0348e-20)
(0.0141824 1.76443 -6.0745e-20)
(1.00319 0.0106549 5.17788e-19)
(1.00349 0.0111741 -6.39822e-19)
(0.998813 -0.00495512 -5.37456e-19)
(0.974412 -0.000787087 6.81244e-19)
(1.0388 -0.00213056 0)
(1.04137 -0.0183245 0)
(1.03933 0.0219071 0)
(1.06613 0.0151708 0)
(1.072 0.0218021 0)
(1.05869 0.0531855 0)
(1.07963 0.0322348 0)
(1.08193 0.0388928 0)
(-0.0062097 1.77051 -1.97645e-21)
(-0.00777737 1.75993 0)
(0.00401138 1.75568 0)
(-0.00692446 1.79251 1.12019e-20)
(-0.0125419 1.80037 -5.67959e-22)
(5.62741e-05 1.71611 2.14274e-20)
(-0.00540023 1.73964 -2.20298e-20)
(0.00632811 1.76817 0)
(0.00750972 1.75852 0)
(0.00160652 1.75816 0)
(-0.0105182 1.77926 0)
(-0.0127231 1.77891 0)
(0.376118 1.9414 4.21482e-19)
(0.369348 1.94989 1.98191e-19)
(0.281104 1.53441 -1.67324e-19)
(0.111715 1.5408 4.36904e-19)
(0.292589 1.62574 1.03421e-19)
(0.999706 0.00673265 0)
(0.980781 -0.0291308 0)
(0.986311 -0.00741849 0)
(1.03802 -0.0137727 0)
(1.01369 -0.0183127 0)
(0.996436 -0.0231116 0)
(0.972188 0.0356315 0)
(1.01828 0.058728 0)
(1.00749 0.00609894 5.22772e-19)
(1.01639 0.0200466 -6.58427e-19)
(1.01769 -0.0170656 -5.27731e-19)
(1.0186 -0.0114312 6.51514e-19)
(0.713207 1.65468 0)
(0.618429 1.77776 2.98205e-19)
(0.805092 1.41778 1.13509e-19)
(0.842019 1.37425 -1.49017e-19)
(0.866344 1.91843 -3.28773e-19)
(0.857927 0.11647 2.98535e-19)
(1.1285 0.087972 0)
(1.08372 0.159604 -8.36657e-20)
(1.15663 0.136254 -1.8112e-21)
(0.959441 0.140807 0)
(0.247345 3.05601 -3.76753e-19)
(0.200674 2.88892 -6.93652e-19)
(0.113782 2.27493 5.58224e-19)
(0.248278 0.2475 -1.88426e-19)
(0.243271 3.50305 -6.33669e-19)
(0.189825 3.43151 0)
(0.226976 3.46694 8.2551e-19)
(0.299967 3.24207 5.45871e-19)
(0.361226 3.37549 0)
(0.0244435 3.10071 2.98249e-20)
(0.0351867 3.11821 -3.54142e-19)
(0.032335 3.10986 5.21312e-19)
(0.0581437 3.133 0)
(0.0592659 3.15009 0)
(0.83505 2.16177 0)
(0.22716 0.535913 3.48016e-20)
(0.975632 1.16723 -6.74508e-20)
(0.932093 1.14971 0)
(0.705333 1.04865 -3.98789e-20)
(0.973974 0.891508 2.05935e-20)
(0.565276 0.577571 -3.5459e-19)
(0.706378 0.336668 -1.83761e-20)
(0.695319 0.318698 2.04752e-19)
(0.632271 0.420073 1.3859e-20)
(0.614157 0.425531 -5.70921e-19)
(0.709626 0.352773 0)
(0.700652 0.39931 2.97703e-19)
(0.704532 0.398249 0)
(0.663928 0.377298 0)
(0.673894 0.36268 0)
(0.695599 0.625873 1.57846e-19)
(1.20562 0.312041 -1.32553e-20)
(1.16074 0.408577 0)
(1.18052 0.409388 0)
(0.789902 0.235581 3.33126e-19)
(0.732279 0.47204 -1.77272e-19)
(0.722906 0.436803 2.98343e-19)
(0.859832 0.422029 -3.09515e-19)
(1.01217 0.0242218 3.62814e-19)
(1.02838 -0.00515594 -3.59625e-19)
(1.01769 0.0157373 0)
(1.01812 -0.00290226 0)
(1.02618 -0.0173045 -3.45164e-19)
(1.02271 -0.0187955 3.43231e-19)
(1.01006 -0.0131768 0)
(0.997342 -0.00570281 0)
(1.01916 -0.00339843 0)
(1.0275 -0.00969328 0)
(1.01236 -0.011132 0)
(1.01517 0.00853945 0)
(0.0206142 1.85139 0)
(0.0190921 1.84237 0)
(0.0685262 1.82909 5.61893e-20)
(0.240747 1.94373 1.30781e-19)
(0.0760836 1.91425 2.90118e-19)
(0.115816 1.96833 -4.72911e-19)
(0.153346 1.86631 0)
(0.15678 1.7421 -8.85663e-20)
(0.124709 1.79408 0)
(0.286718 1.67413 -1.49352e-19)
(0.203713 1.63065 5.02866e-19)
(0.198741 1.76298 7.56541e-20)
(0.258427 1.86513 5.02018e-20)
(0.220515 1.8627 -4.05698e-20)
(0.305325 1.79097 -3.43807e-20)
(0.259451 1.74299 0)
(0.266066 1.75786 3.68448e-20)
(0.0452025 1.76063 -4.53601e-20)
(0.0416455 1.75294 0)
(0.0600406 1.72928 1.74258e-19)
(0.0580194 1.74152 0)
(0.0168835 1.70944 -1.54798e-19)
(0.025284 1.73438 0)
(0.00211772 1.76769 -2.02309e-20)
(-0.00841939 1.77042 0)
(0.0132263 1.75945 0)
(0.0183674 1.75992 2.21274e-20)
(0.00575745 1.76066 -1.1623e-21)
(0.0140407 1.7699 1.53762e-19)
(0.00510625 1.76556 1.02691e-21)
(-0.0115391 1.74607 2.38371e-20)
(-0.0167001 1.74371 1.79095e-20)
(-0.011771 1.78481 0)
(-0.00880764 1.77206 0)
(0.000712576 1.75958 8.71852e-20)
(0.0237024 1.75035 6.7879e-20)
(0.00522329 1.74919 -9.63547e-20)
(0.00831508 1.75421 0)
(0.00896185 1.77015 -3.41407e-20)
(0.0167513 1.76417 2.0286e-20)
(0.0180196 1.74977 -7.15369e-21)
(0.00527855 1.74213 -2.97997e-20)
(-0.0070416 1.74629 -1.62996e-20)
(0.0162579 1.77013 3.77312e-20)
(1.01818 -0.00310433 -3.46132e-19)
(1.00017 0.024556 3.50915e-19)
(1.00841 0.00930429 0)
(0.96862 0.0532955 4.8675e-19)
(0.961956 0.0255955 -5.64659e-19)
(0.924426 0.0382591 6.49847e-19)
(0.974068 0.0332551 -6.21986e-20)
(1.04642 0.00361854 0)
(1.03988 -0.0236461 3.1255e-19)
(1.03986 -0.0158251 -3.18083e-19)
(0.990359 0.0338136 -1.77647e-20)
(1.01551 0.0232143 1.55415e-19)
(0.971236 0.047681 0)
(0.971818 0.0275633 -5.71175e-20)
(1.01962 0.0459996 0)
(1.00006 0.0379863 0)
(1.01391 0.0107019 0)
(1.01726 0.00577191 0)
(1.01155 0.0307052 1.20593e-19)
(0.99874 0.0118155 -2.51434e-19)
(0.925327 0.00141956 -1.24395e-19)
(0.949068 0.0193084 -1.41145e-19)
(1.0057 0.0810154 2.26377e-19)
(1.06449 0.0646134 0)
(1.03208 0.0789383 0)
(-0.0134223 1.76642 -3.22173e-20)
(-0.0223739 1.76611 -1.25571e-21)
(-0.014801 1.75397 0)
(-0.0190065 1.77819 3.13165e-20)
(-0.00614615 1.77634 3.03959e-21)
(-0.0134713 1.78255 -3.45395e-21)
(0.00513384 1.7717 4.0363e-20)
(0.010678 1.7424 -2.61751e-21)
(-0.00792357 1.73873 1.92976e-20)
(0.00456144 1.79437 -2.74702e-20)
(-0.000265125 1.76939 3.14457e-20)
(0.0201713 1.72903 2.42913e-21)
(0.00968114 1.70902 2.19219e-20)
(0.365112 1.80977 -1.77887e-19)
(0.299751 1.79514 6.58836e-20)
(0.633904 1.82379 -2.87396e-19)
(0.522463 1.91217 -1.98599e-19)
(0.523928 1.89138 0)
(0.323951 1.53516 1.7249e-19)
(0.358947 1.5205 2.49032e-19)
(0.156355 1.55708 3.69458e-20)
(0.168975 1.54773 -5.74417e-19)
(0.222249 1.55397 4.56074e-19)
(0.253896 1.56051 0)
(0.181561 1.55156 -3.6572e-19)
(0.137452 1.63956 7.00056e-19)
(0.125327 1.57767 -6.08232e-20)
(0.107366 1.61499 -9.65694e-19)
(0.679621 1.47917 9.62502e-19)
(0.470519 1.50251 0)
(1.0338 -0.0086477 9.77733e-21)
(1.04408 0.0591747 -8.42019e-21)
(1.02637 0.0373069 -1.63114e-19)
(0.999765 0.0107427 1.6812e-19)
(1.00611 0.0153655 0)
(0.551551 1.62092 0)
(0.493469 1.51004 0)
(0.618483 1.24695 0)
(0.413941 1.45418 0)
(0.862531 1.86113 1.73842e-19)
(0.93692 1.68831 0)
(0.634258 1.75931 6.40569e-21)
(0.507678 1.60829 0)
(0.595796 1.59605 -6.39032e-19)
(0.617067 1.65215 4.07643e-19)
(0.873998 0.13781 0)
(0.851484 0.159853 8.28954e-20)
(0.921638 0.0813776 4.25243e-19)
(0.861503 0.0982558 -1.6307e-19)
(0.842907 0.0625923 -5.54134e-19)
(0.976029 0.189914 -3.05675e-19)
(0.925305 0.248137 -1.33965e-20)
(0.80737 0.269131 4.1135e-19)
(0.938252 0.221763 3.07673e-19)
(0.926108 0.137864 -5.53615e-19)
(0.901304 0.138314 7.06016e-20)
(0.850178 0.235954 -1.43469e-19)
(0.907628 0.211286 0)
(0.948276 0.175753 2.70348e-19)
(0.940983 0.171011 0)
(0.953075 0.219681 0)
(1.07544 0.139857 1.05375e-19)
(0.968711 0.147113 -6.15833e-21)
(0.980235 0.169067 -6.69416e-20)
(1.00247 0.199609 0)
(1.01536 0.0497381 2.50701e-19)
(1.01614 0.0380445 3.17492e-19)
(1.02025 0.0589551 -2.44516e-19)
(1.03013 0.0561073 -2.13838e-19)
(0.973965 0.064712 -3.46717e-19)
(0.955343 0.0509994 0)
(0.953423 0.0310686 0)
(0.926015 0.0817106 -2.3142e-19)
(0.910017 0.0804518 9.45507e-20)
(1.013 0.0844211 2.77564e-19)
(0.98916 0.0874704 -3.08816e-19)
(0.987246 0.103841 2.8532e-19)
(0.982106 0.123405 0)
(0.992442 0.0821929 0)
(1.00649 0.0986642 -1.23348e-19)
(1.01402 0.10079 -2.19857e-19)
(0.32386 1.73851 2.86497e-19)
(0.365329 2.10257 -2.7924e-19)
(0.667391 2.26456 -1.21318e-19)
(0.699971 2.84276 -6.5805e-20)
(0.895554 2.16811 4.90699e-19)
(0.876439 2.26865 -3.22346e-19)
(0.990064 1.71905 -7.0644e-20)
(0.695894 2.62075 1.16215e-19)
(0.765652 2.46843 -2.45356e-20)
(0.718057 3.03774 -2.21632e-19)
(0.960745 2.69447 2.62381e-19)
(0.985947 2.66207 0)
(0.212973 0.647518 1.13351e-21)
(0.607729 1.38691 1.18094e-19)
(0.692091 0.50769 2.43029e-19)
(0.698535 0.354465 3.58964e-19)
(0.603114 0.436679 3.11842e-19)
(0.603662 0.437885 -4.2434e-19)
(0.589551 0.462433 3.12833e-19)
(0.593489 0.450584 -1.50476e-19)
(0.574438 0.470235 3.84734e-19)
(0.788685 0.258117 -1.87411e-19)
(0.752402 0.286009 0)
(0.76809 0.270702 9.60242e-21)
(0.671306 0.469562 1.50814e-19)
(0.659777 0.430541 -5.60869e-19)
(0.60461 0.438593 2.2244e-20)
(0.632478 0.447522 0)
(0.461234 0.673282 1.05814e-19)
(0.637 0.81596 2.54902e-19)
(0.554352 0.757877 -2.8413e-19)
(0.659959 0.829606 -8.33143e-20)
(0.782665 0.896727 -1.8383e-20)
(0.775333 0.898856 1.8711e-20)
(0.778629 0.560478 -2.81478e-19)
(0.827188 0.63719 7.82899e-20)
(0.873437 0.734326 0)
(0.869571 0.70982 -8.23655e-20)
(0.969052 0.335987 8.08412e-20)
(1.10292 0.294864 2.69563e-20)
(1.02979 0.238536 1.22001e-19)
(0.92347 0.383988 -1.74742e-19)
(0.943845 0.385429 0)
(0.965994 0.386413 0)
(0.862222 0.334517 8.25923e-21)
(0.781111 0.3159 0)
(0.81358 0.299984 2.03455e-19)
(0.838857 0.272635 -1.69681e-20)
(0.85455 0.419169 8.30344e-19)
(0.810243 0.473642 2.45798e-19)
(0.822943 0.453777 -2.60273e-19)
(0.767517 0.371929 2.76884e-19)
(0.725057 0.38972 1.73716e-19)
(0.705252 0.411697 -1.67249e-19)
(0.995398 0.0397176 2.88406e-19)
(0.998699 -0.0405936 0)
(1.00098 0.0104884 1.91554e-19)
(1.00156 0.0347119 -4.30047e-19)
(1.00808 -0.0157278 2.07169e-19)
(1.01206 0.0498593 -4.39223e-19)
(1.00624 0.00382628 0)
(0.996778 -0.025084 -9.37012e-20)
(1.00021 0.020998 2.38442e-19)
(0.991387 0.0112405 -1.22241e-19)
(0.986783 -0.0148701 8.95819e-20)
(0.00736256 1.81248 0)
(0.0169879 1.76097 0)
(0.0145444 1.83699 0)
(0.00878737 1.82695 0)
(0.0469868 1.74894 6.84218e-20)
(0.0547511 1.77841 -4.45245e-20)
(0.0643651 1.79341 -1.21282e-20)
(0.0518838 1.78052 -5.2039e-20)
(0.0331189 1.7617 -4.76884e-20)
(0.0249141 1.76404 3.49207e-20)
(0.0483695 1.75825 -4.2885e-20)
(0.0273927 1.78675 6.89405e-23)
(0.0268418 1.78333 1.59597e-21)
(0.0160831 1.76379 -5.02128e-21)
(0.0507313 1.7208 -1.79574e-19)
(0.0413205 1.71133 0)
(0.0523453 1.70358 1.16522e-19)
(0.086936 1.7869 6.30686e-20)
(0.2139 1.70134 -7.47862e-20)
(0.169428 1.67287 0)
(0.162493 1.64553 -5.23431e-19)
(0.202377 1.66382 3.67965e-19)
(0.158413 1.71891 -2.14357e-19)
(0.0915769 1.68846 1.17145e-19)
(0.0918196 1.6659 0)
(0.00697884 1.7579 -1.01366e-19)
(0.00623198 1.74635 -1.41442e-19)
(0.00399241 1.74574 0)
(0.00703993 1.75102 -2.90614e-21)
(0.0208483 1.74948 5.52803e-20)
(0.00363027 1.78802 2.87777e-21)
(0.00490769 1.7904 -3.87189e-20)
(-0.00509945 1.78877 2.66867e-21)
(-0.00580736 1.77587 2.27483e-20)
(0.0110488 1.7748 0)
(-0.00552814 1.78891 0)
(-0.00146477 1.78573 2.36822e-20)
(-8.00793e-05 1.79132 -7.2244e-21)
(-0.00184127 1.78771 0)
(0.00437026 1.78088 2.0306e-20)
(0.00250755 1.78125 -3.7251e-20)
(0.970008 0.0432829 0)
(1.02644 0.0809583 -2.80688e-20)
(1.03251 -0.0024999 -1.75827e-19)
(1.01407 -0.00497186 0)
(1.04327 0.0545456 0)
(1.0063 -0.0291805 -2.60445e-20)
(0.973105 -0.0113379 3.18248e-19)
(1.00936 0.00749576 3.9032e-19)
(1.00805 0.0210169 0)
(1.00184 0.0134413 0)
(1.00623 0.00530436 2.02397e-19)
(1.00602 0.0137323 0)
(0.995497 0.0195975 0)
(0.0359029 1.76298 0)
(0.0245491 1.72231 -4.36802e-21)
(0.0114408 1.7759 6.20391e-21)
(0.00321936 1.78209 0)
(0.0160192 1.71136 1.94023e-20)
(0.0144683 1.72901 -8.46982e-21)
(7.69667e-05 1.78123 0)
(0.398623 1.65526 0)
(0.308857 1.7627 -1.80697e-19)
(0.282231 1.72022 0)
(0.448094 1.76787 1.14944e-19)
(0.479544 1.79649 0)
(0.43616 1.80438 -4.99072e-21)
(0.691326 1.56648 -1.98961e-20)
(0.731972 1.48286 -1.10951e-18)
(0.784954 1.45995 1.23163e-18)
(0.50459 1.5104 2.73741e-19)
(0.49397 1.53066 0)
(0.537524 1.5251 0)
(0.6308 1.49867 0)
(0.574264 1.49445 -9.87418e-19)
(0.370675 1.58026 -5.06692e-19)
(0.464284 1.54345 -1.24881e-19)
(0.501687 1.57781 1.05433e-19)
(0.401011 1.50903 0)
(0.457747 1.51503 0)
(0.416085 1.51418 -2.80485e-19)
(0.45556 1.55923 0)
(0.264968 1.40776 0)
(-0.131697 1.22082 -1.55289e-19)
(0.174864 0.911776 -9.56826e-21)
(0.0621359 1.61648 0)
(-0.0580536 1.66203 2.74899e-19)
(0.607812 0.829408 -7.94931e-20)
(0.60109 1.15214 0)
(0.672376 1.0708 8.80777e-20)
(0.40802 1.093 0)
(0.473074 0.969584 0)
(0.836666 1.89783 -1.7395e-19)
(0.729285 2.10004 -2.42807e-19)
(0.589764 2.00177 4.66861e-19)
(0.638344 1.89277 -1.43139e-19)
(0.869658 1.76 0)
(0.858415 1.70112 1.83863e-19)
(0.93498 1.63134 -1.94727e-19)
(0.928217 1.52423 -1.79349e-20)
(0.545554 1.71941 0)
(0.416202 1.7409 -2.50715e-19)
(0.44134 1.67564 0)
(0.880672 0.224215 0)
(0.849414 0.15805 0)
(0.805905 0.175603 0)
(0.853325 0.234229 -3.20609e-19)
(0.799284 0.221667 1.98019e-19)
(0.90329 0.0820457 -1.95042e-19)
(0.925661 0.073659 0)
(0.924923 0.0692834 8.11784e-20)
(0.871849 0.0410698 3.55093e-19)
(0.88191 0.0648422 -2.18731e-19)
(0.767981 3.2432 -6.82993e-19)
(0.749489 3.1599 0)
(0.803071 3.26651 -1.81193e-18)
(0.389997 3.54327 1.71223e-18)
(0.479704 3.25905 8.00161e-19)
(0.14699 0.903298 -5.58188e-19)
(-0.109816 1.35551 0)
(0.537128 0.380943 5.71803e-21)
(0.505016 0.372891 -5.62927e-20)
(0.647586 0.405444 -8.87441e-20)
(0.657063 0.447857 1.84585e-20)
(0.630412 0.48032 1.68133e-19)
(0.656361 0.478102 0)
(0.609861 0.505409 0)
(0.624511 0.432019 0)
(0.970941 0.5724 7.92554e-21)
(0.783253 0.46774 -2.39886e-19)
(0.761837 0.537815 1.80735e-19)
(0.865423 0.485054 -1.72182e-19)
(1.01572 0.4112 0)
(1.07582 0.536135 -3.41856e-20)
(0.769491 0.3509 -4.06158e-19)
(0.781691 0.350021 -4.8068e-19)
(0.727397 0.382531 3.18903e-19)
(0.743753 0.335346 -3.33238e-19)
(0.7699 0.325168 -2.65296e-19)
(0.74874 0.327822 3.26547e-19)
(1.02132 -0.021975 -2.09501e-19)
(1.02744 -0.0154389 4.17818e-19)
(0.995019 0.04052 2.75002e-19)
(0.997961 0.0533436 -3.26826e-19)
(0.952624 0.0479247 0)
(0.963733 -0.0253618 -5.13009e-19)
(0.0516901 1.78419 2.66209e-20)
(0.0442698 1.7438 0)
(0.0642699 1.78498 2.03795e-19)
(0.0754022 1.78924 -1.70008e-19)
(0.0581592 1.78208 2.23782e-20)
(0.0464393 1.72053 0)
(0.0191122 1.73006 0)
(0.00222573 1.77819 -5.36458e-21)
(-0.00212217 1.78087 4.83608e-21)
(0.00606008 1.75134 -3.59068e-21)
(0.0197295 1.73141 -1.31628e-20)
(0.00455465 1.73204 1.26779e-20)
(0.509635 1.66419 -6.28553e-19)
(0.485951 1.63622 6.65376e-19)
(0.449257 1.71299 -1.47163e-19)
(0.470775 1.67556 2.63863e-20)
(0.561358 1.67351 0)
(0.544089 1.75684 1.0427e-19)
(0.551046 1.73372 -1.03168e-19)
(0.485265 1.71452 1.41236e-19)
(0.507321 1.67266 0)
(0.490535 1.68002 0)
(0.353398 1.53689 7.80466e-19)
(0.397504 1.53202 1.12069e-18)
(0.410339 1.55369 -7.68243e-19)
(0.339682 1.54054 -1.45931e-19)
(0.311986 1.5445 2.37159e-19)
(0.2213 1.5443 -5.8855e-19)
(0.824825 1.44586 -6.68789e-19)
(0.908807 1.47661 0)
(0.861505 1.45003 -6.87102e-19)
(0.794923 1.62142 0)
(0.796937 1.56614 0)
(0.189636 2.9067 6.13152e-19)
(0.500388 3.11358 5.86864e-19)
(0.446793 3.19349 -7.56036e-19)
(0.494821 1.40302 0)
(0.443011 1.21589 2.78409e-19)
(0.192184 1.25101 3.254e-19)
(0.163662 2.82303 0)
(0.346283 3.13403 -5.67639e-19)
(0.371075 2.99122 0)
(0.53487 0.499305 -2.36678e-19)
(0.661169 0.641125 3.85027e-19)
(0.652873 0.65217 -3.87629e-19)
(0.604724 0.479259 -2.80849e-20)
(0.667138 0.509449 -1.29085e-19)
(0.414002 2.9575 -4.54083e-19)
(0.425876 2.73511 2.12825e-19)
(0.172606 2.74385 -4.65043e-19)
(0.0954888 2.57026 2.27648e-19)
(0.210258 2.28836 -4.45292e-19)
(0.337669 2.6314 -2.22937e-19)
(0.38137 2.27817 1.52409e-19)
(0.0624353 2.49278 2.45682e-21)
(0.113049 2.38639 2.40459e-19)
)
;

boundaryField
{
    wall-4
    {
        type            noSlip;
    }
    velocity-inlet-5
    {
        type            fixedValue;
        value           uniform (1 0 0);
    }
    velocity-inlet-6
    {
        type            fixedValue;
        value           uniform (0 3 0);
    }
    pressure-outlet-7
    {
        type            zeroGradient;
    }
    wall-8
    {
        type            noSlip;
    }
    frontAndBackPlanes
    {
        type            empty;
    }
}


// ************************************************************************* //
