/*--------------------------------*- C++ -*----------------------------------*\
  =========                 |
  \\      /  F ield         | OpenFOAM: The Open Source CFD Toolbox
   \\    /   O peration     | Website:  https://openfoam.org
    \\  /    A nd           | Version:  6
     \\/     M anipulation  |
\*---------------------------------------------------------------------------*/
FoamFile
{
    version     2.0;
    format      ascii;
    class       volScalarField;
    location    "1";
    object      p;
}
// * * * * * * * * * * * * * * * * * * * * * * * * * * * * * * * * * * * * * //

dimensions      [0 2 -2 0 0 0 0];

internalField   nonuniform List<scalar> 
918
(
1.34132
0.341975
0.210047
1.39083
0.00471795
0.175186
-0.545139
0.925292
1.43715
0.0798809
0.123088
1.09773
-0.18461
-0.175278
-0.674519
0.0540072
1.11997
-0.645564
1.06395
0.077239
-0.217168
1.40825
1.27146
1.06319
1.11164
-0.310604
0.0270328
-0.0581921
-0.101063
-0.0707503
0.00372059
0.109747
0.0308448
-0.0606163
0.106698
0.228533
1.08942
0.657348
-0.365738
-0.379309
-0.430343
-0.671658
0.963908
0.992587
0.240729
0.878046
0.817342
1.09103
1.38113
1.44309
1.28693
1.38882
1.43886
0.398255
0.0319928
-0.0453462
0.099641
0.0655001
0.151621
0.11948
0.115617
0.165737
0.145427
1.01246
1.08793
1.08894
1.11374
1.0975
0.314941
0.306721
0.43114
-0.232327
0.036983
-0.236458
-0.0411674
-0.161262
-0.0876859
-0.137687
-0.102233
-0.746522
-1.22699
-0.337369
-0.291766
0.00605564
0.0513077
0.0705512
1.11814
1.12301
1.09666
1.10226
0.773907
-0.526651
-0.73397
1.13772
1.12935
1.40997
1.30307
1.14933
1.04663
0.0663818
0.0614964
0.0349552
0.100525
0.0704501
0.122578
0.335561
1.01358
1.08224
1.08926
1.10711
1.10227
0.816434
1.16792
1.13876
-0.153918
-0.0216976
-0.243447
-0.157108
0.0358907
0.00292804
0.119852
0.15931
-0.112062
-0.0118805
0.0806318
0.021433
0.0649763
1.08683
1.0708
1.10317
1.09373
1.10678
0.549179
0.466667
0.718984
0.786066
-0.141448
-0.156117
-0.615173
-0.588773
-0.760893
0.957234
1.01414
1.04476
0.0629881
0.23016
0.0433156
0.360193
0.340876
1.10849
1.08599
1.09241
1.09452
1.10621
1.10727
1.39882
1.37962
1.47568
0.367644
0.431793
0.409036
0.328874
-0.293011
-0.182231
-0.305984
0.0545693
0.102426
0.125119
0.168278
0.205529
0.152259
0.103987
0.124423
0.125984
0.101305
0.0864105
1.0222
0.99494
1.00889
1.02696
1.09772
1.09166
1.09597
1.1007
0.112884
0.103661
0.00984056
0.0129045
-1.74672
-3.35356
-0.246484
-0.204621
-0.0013578
-0.0175948
-0.00891988
-0.14978
-0.0282366
-0.0805215
0.141746
0.10192
0.0730141
0.106684
1.13092
1.15687
0.785285
0.82832
0.690185
0.694401
1.12122
1.13967
1.13209
1.13658
0.0872149
0.0648029
0.0861307
0.74882
0.531675
0.634761
0.789917
0.683525
0.862215
0.914504
1.14964
1.1455
1.16422
-0.195299
-0.116266
0.422076
-0.0993467
0.324403
-0.087785
-0.189861
-0.0192651
-0.187301
1.0352
1.06551
1.05994
1.09602
1.10787
1.10925
1.10684
1.09422
1.10011
0.305015
0.0729582
0.902432
0.863627
0.807563
0.862972
0.966728
0.955797
1.08728
1.0476
1.06958
0.506129
0.49711
0.261443
0.242536
0.953679
0.963842
0.956478
0.0253202
-0.0620388
0.0280239
-0.00854728
-0.0458149
0.0526718
0.0493256
-0.898704
-0.409284
-0.144688
-0.157246
-0.173838
0.0942125
0.200716
0.150552
0.80012
0.852029
0.458063
0.6137
0.570096
-0.309118
-0.220732
-0.0425807
-0.207767
-0.11649
-0.0382725
-0.135626
0.907627
0.894236
0.941869
0.899669
0.936776
0.631292
0.571524
0.532621
0.20125
0.20639
0.196487
0.839902
0.886238
0.881701
1.03125
1.02631
-0.0963976
-0.0113662
1.23567
1.27075
-0.112659
-0.0377357
-0.136389
-0.11952
0.600606
1.1326
1.06541
1.16785
0.01179
0.217023
0.0686293
0.0338736
-0.033909
1.05039
0.968209
0.9308
-0.0828293
0.0166948
0.00115662
-0.236412
1.15046
1.12171
1.14093
1.1637
1.19643
0.00948573
-0.0169887
0.0549207
-0.0529871
0.0849643
0.0957376
1.10356
1.06966
-0.114594
1.129
1.1732
1.17332
1.18543
1.1907
1.171
-0.0118908
0.0665018
0.0826327
0.715731
0.832718
-0.154535
-0.347025
-0.0271219
-0.155817
-0.23921
-0.109343
-0.144082
-0.121408
-0.148123
0.999756
0.899171
0.703903
0.480603
0.675473
0.666304
1.1257
1.15737
1.11075
1.1445
1.17092
1.08125
1.19695
1.13426
1.12771
1.21193
0.0553234
0.135845
0.124789
-0.0432601
0.37941
0.451661
0.267543
0.377856
0.142724
0.0402431
0.137108
0.046539
0.102971
0.0309194
0.211806
0.0764441
0.246838
0.0537386
0.213953
-0.00630739
0.294606
0.0538839
1.02872
1.0736
1.04956
1.12078
1.03087
1.06385
1.02523
1.01133
1.06213
0.955074
0.968468
0.989735
0.0510471
0.0437384
0.103241
0.0603344
0.105099
-0.0157815
0.00444473
-0.0279327
-0.00278647
-0.0647594
-0.00981744
0.0213812
-0.106964
-0.318974
0.705089
0.59036
0.160219
1.08611
1.16241
1.11302
1.1796
1.20172
1.26214
1.2019
1.15208
1.08452
1.11318
1.08113
1.11557
-0.0256184
-0.087477
0.117696
0.0909863
0.660628
1.12435
0.913318
0.865323
0.867836
0.985639
0.387654
0.137752
-0.484101
-0.634397
-0.115745
-0.197182
-0.203572
0.106092
0.216635
-0.191066
-0.119163
-0.000754063
-0.0778979
-0.098145
0.336461
0.983386
0.307274
0.321634
0.624258
0.522146
0.307311
1.02319
1.03905
0.859214
0.791262
0.972041
0.937446
0.947034
0.964559
0.976517
0.985917
0.762053
0.78431
0.703214
1.06513
0.995358
1.01137
0.887751
1.16002
1.16948
1.13036
1.12486
1.19661
1.12378
1.11226
1.06031
1.04429
1.11889
1.12689
1.07402
0.156899
0.116289
0.102033
-0.10113
0.0778545
-0.0439614
0.0991964
0.258765
0.0718647
0.174113
0.422062
0.283238
0.00694958
0.202605
0.0442185
0.357611
0.220961
0.236874
0.188379
0.243001
0.232345
0.301235
0.257584
0.0976357
0.101965
0.188071
0.0624231
0.211169
0.152978
0.240253
0.152868
0.27356
0.169809
0.107956
0.0550137
0.244955
0.136235
0.0476842
0.060929
0.0409308
-0.114973
-0.0782713
0.346878
0.12864
1.1215
1.08794
1.09282
1.08783
1.14873
1.12214
1.03336
1.0963
1.15905
1.10225
1.03926
1.00725
0.977964
1.03509
1.04341
1.03223
1.13678
1.11229
1.05577
1.09785
1.00634
1.03549
0.94268
0.993505
1.05097
-0.129191
0.0468413
-0.0380024
-0.0180691
0.0443394
0.12444
0.242523
0.0619632
0.248649
0.18917
0.142226
0.0809376
0.133799
0.0723636
0.174269
0.00839694
-0.177534
-0.265517
0.737695
0.798055
0.679865
0.574398
0.643992
0.656586
0.752753
0.532792
0.48882
0.595272
0.842478
0.826094
1.1277
1.09183
1.14546
1.17455
1.13508
0.195077
0.414595
0.492205
0.685417
0.671636
0.699744
0.528374
0.564015
0.621115
0.668542
1.09243
1.10824
1.11039
1.14755
1.14389
0.913689
1.01853
1.04529
1.06738
1.02999
1.04497
1.08807
1.04733
0.992768
1.02236
1.02719
1.00214
1.02026
0.986126
1.01344
1.05283
1.03016
1.0263
1.04409
1.12354
1.04122
1.09864
1.16898
1.10828
0.992347
0.982557
1.01784
1.02342
1.01759
1.00761
0.984698
0.596388
0.699517
0.559457
0.52621
0.593192
0.43239
0.403871
0.508631
0.532899
0.286226
0.225662
-0.145547
0.92517
0.238117
0.203037
-0.314627
0.745337
0.822327
0.765021
0.560757
0.600333
1.04115
1.06333
1.07895
0.956624
0.913999
0.908157
0.894818
1.00859
0.878217
0.780343
0.879107
0.698901
0.779884
0.89451
0.838992
0.804002
0.852675
0.902519
0.813954
0.810299
0.911715
0.888697
0.929949
0.976023
1.00812
1.04323
0.970299
0.867263
0.960651
0.919992
0.979037
1.02254
0.9995
1.1414
1.09875
1.11822
1.10342
1.07818
1.11137
1.05162
1.13952
1.15274
1.17869
1.15678
0.0620651
0.116597
0.160412
0.072374
0.121879
0.0908682
0.0621567
0.0724648
0.1952
0.173308
0.0794649
0.129739
0.271277
0.172955
0.230466
0.244515
0.172012
0.121971
0.433817
0.506649
0.457174
0.452782
0.417468
0.376164
0.473837
0.0918499
0.244414
0.163273
0.103899
0.097397
0.0952886
0.235083
0.104562
0.214777
0.103358
-0.157848
0.113381
0.20707
-0.0242405
0.0669484
0.113905
1.07033
1.07998
1.03174
1.00184
1.02341
1.00878
1.08246
1.12862
1.13049
1.12053
1.13972
1.09913
1.11166
0.0502232
0.27608
0.31046
0.191674
0.140679
0.0137798
-0.022602
0.557473
0.30429
0.334071
0.208364
0.0619709
0.14562
0.760885
0.854745
0.852963
0.863536
0.792907
0.719892
0.791527
0.898384
0.716578
0.727783
0.6739
0.772852
0.764987
0.823084
0.720314
0.551146
0.811346
0.974741
0.504695
0.600351
0.632614
0.69147
0.681988
0.688345
0.835964
0.658073
0.599901
0.589098
0.553363
0.718252
0.69242
0.754259
0.799968
0.483774
0.523881
0.494182
1.04607
1.07315
1.10591
1.07493
1.09284
1.07961
1.0817
1.11951
1.1601
1.1498
-0.0711771
0.0876028
-0.458698
0.141427
0.357585
1.06943
0.776705
1.18061
1.09455
0.742467
0.845301
0.946857
0.929546
1.00093
0.950206
0.842254
0.927917
0.864167
0.895562
0.785139
0.706637
1.03534
1.01963
1.0272
1.04097
0.998532
1.03871
0.992115
1.08238
1.0387
1.10091
1.1386
1.1714
0.232587
0.11708
0.221452
0.225118
0.216056
0.165319
-0.0394997
0.0117538
0.342102
0.251976
0.127755
0.211219
0.503953
0.496783
0.306308
0.433869
0.299404
0.106465
0.156714
0.203956
0.353551
0.438022
0.68668
0.70156
0.672745
0.741004
0.633913
0.76929
0.827459
0.798472
0.838832
0.731741
0.754359
0.741668
0.291138
0.466463
1.01217
1.31961
1.15392
0.995933
0.609109
0.68766
1.01111
0.935713
0.927233
1.00487
0.943634
0.565344
0.611055
0.626221
0.58276
0.711159
0.634101
0.607713
0.695994
0.72917
)
;

boundaryField
{
    wall-4
    {
        type            zeroGradient;
    }
    velocity-inlet-5
    {
        type            zeroGradient;
    }
    velocity-inlet-6
    {
        type            zeroGradient;
    }
    pressure-outlet-7
    {
        type            fixedValue;
        value           uniform 0;
    }
    wall-8
    {
        type            zeroGradient;
    }
    frontAndBackPlanes
    {
        type            empty;
    }
}


// ************************************************************************* //
