/*--------------------------------*- C++ -*----------------------------------*\
  =========                 |
  \\      /  F ield         | OpenFOAM: The Open Source CFD Toolbox
   \\    /   O peration     | Website:  https://openfoam.org
    \\  /    A nd           | Version:  6
     \\/     M anipulation  |
\*---------------------------------------------------------------------------*/
FoamFile
{
    version     2.0;
    format      ascii;
    class       surfaceScalarField;
    location    "1";
    object      phi;
}
// * * * * * * * * * * * * * * * * * * * * * * * * * * * * * * * * * * * * * //

dimensions      [0 3 -1 0 0 0 0];

internalField   nonuniform List<scalar> 
1300
(
3.75095
5.62643
-7.14131
3.75095
-6.26973
5.62643
-6.40554
6.40554
-1.44278
1.44278
1.82195
1.929
-5.79896
5.79896
-5.65815
5.65815
-3.05714
3.05714
-5.51827
5.51827
-5.2733
5.2733
3.93945
-3.93945
-5.32603
5.32603
-2.16831
2.16831
-6.42866
6.42866
3.2341
-3.2341
-5.61414
5.61414
-1.66647
1.66647
-0.383429
4.13438
3.36752
3.36752
-2.77908
2.77908
-5.38186
5.38186
6.09618
-6.09618
9.944
-9.944
-2.80269
-3.22919
1.20108
-8.13974
-5.06865
-5.06865
-8.50134
8.50134
-2.87491
2.75152
3.22358
-3.22358
-2.64182
2.64182
-6.18752
-0.218026
-6.18752
6.58444
-0.178894
6.58444
-1.64614
0.203363
-1.64614
4.83558
-4.83558
1.22634
0.216444
1.22634
3.2634
-3.2634
-1.87387
3.69582
1.87708
-2.00659
6.14097
-1.74436
3.67337
-4.86345
4.86345
-6.01991
0.220949
-6.01991
5.9304
-0.131437
5.9304
-5.53801
5.53801
-5.73042
0.0722758
-5.73042
5.59076
0.0673824
5.59076
3.2937
-3.2937
-3.14653
0.0893889
-3.14653
3.08805
-0.0309146
3.08805
0.281528
5.3449
-5.90796
8.65948
-5.3449
-0.173367
5.41983
0.0984437
5.41983
-5.22196
-0.0513384
-5.22196
5.16028
0.113019
5.16028
3.7781
0.161352
3.7781
-4.24183
0.302371
-4.24183
-3.17888
-3.28305
-5.44795
0.121921
-5.44795
-2.23299
0.0646777
-2.23299
2.07514
0.0931767
2.07514
-3.99118
3.99118
-6.68751
0.258849
-6.68751
3.19345
0.0406409
3.19345
2.03104
1.71991
5.782
-5.782
2.5479
-5.72042
0.106279
-5.72042
-5.72626
-4.21774
5.72626
-0.112125
-1.04133
-0.625132
-1.04133
3.30471
0.0628182
3.30471
2.95696
0.131092
-2.95696
0.177887
3.69751
-3.69751
2.25526
0.523814
2.25526
-5.53875
5.53875
5.25883
-0.0985455
-5.25883
-0.12303
6.07564
0.0205348
6.07564
-6.06783
-0.0283441
-6.06783
3.26769
-6.49689
-3.33832
5.23595
0.0900852
-5.23595
0.167297
3.24451
-0.020934
3.24451
-3.21591
3.21591
-3.2079
-0.0156784
-3.2079
-2.51889
-0.122922
-2.51889
2.71311
-0.0712958
2.71311
-5.73006
-0.457456
-5.73006
-6.69621
0.00870313
6.69621
-0.111776
3.0579
-3.0579
-1.79256
0.146413
-1.79256
-5.2188
-0.511263
5.2188
-0.383216
-4.60648
-0.229105
-4.60648
-3.22873
0.0208324
3.22873
0.0346702
3.20582
0.098888
-3.20582
-0.0575855
-1.88784
3.60775
-1.86311
3.7402
-4.78031
-0.0831397
-4.78031
5.1824
-0.318954
5.1824
6.33855
0.0901135
-6.33855
0.318637
5.73438
0.196021
5.73438
-5.57439
0.0363847
-5.57439
5.66353
-0.125529
5.66353
5.67497
0.0594062
-5.67497
-0.0554482
5.80007
-0.209312
5.80007
3.37553
-0.0818303
3.37553
-3.28019
-0.0135119
-3.28019
3.19147
-3.19147
3.10044
0.091031
-3.10044
-0.0460921
-11.2017
11.1733
-0.183623
-11.0181
5.2362
5.2362
3.18837
0.589729
3.18837
-4.67582
0.433993
-4.67582
3.29208
-6.6304
3.20315
-6.38203
3.08202
-11.2218
3.48658
-6.76962
5.55596
-5.55596
5.42588
0.130084
-5.42588
-0.022078
-2.21814
-0.0148484
-2.21814
-3.73076
-0.260418
-3.73076
4.33731
-0.346132
4.33731
-3.24961
3.24961
-3.17406
-0.0755562
3.17406
0.0193994
5.7015
0.0985741
-5.7015
-0.0189146
1.06723
0.159109
-1.06723
0.0258942
3.9279
-0.230389
3.9279
-3.54469
-0.152821
-3.54469
-2.20778
-0.0103679
2.20778
0.0474868
-5.86655
0.3278
-5.86655
-11.073
0.0549418
-10.9746
-6.01289
-6.01289
2.48845
11.1479
-3.25864
-0.0215494
3.25864
-0.0141253
3.15699
0.0926213
-3.15699
-0.0589209
-3.16996
-0.0215066
3.16996
0.0459497
-2.37259
-0.146304
-2.37259
-2.91324
2.91324
-2.84886
-0.0643806
2.84886
-0.135748
3.23078
-0.172882
3.23078
1.99148
0.0836601
-1.99148
0.198922
-4.22188
-0.3846
-4.22188
5.28932
-0.10692
5.28932
-3.40681
-0.137884
3.40681
-0.0312761
-0.0319617
11.2053
-5.20424
-0.0177214
5.20424
-11.2258
11.2081
-2.51637
0.143779
2.51637
0.672005
5.11688
0.421863
-5.11688
0.441064
5.44635
0.217187
-5.44635
-0.109613
-3.5694
-0.161357
-3.5694
-4.57356
-0.206746
4.57356
-0.23625
-11.3768
-0.10214
11.4789
-11.2637
5.96869
0.106957
-5.96869
11.3151
-2.93936
-0.118544
2.93936
-0.0261137
3.31448
-0.0837012
3.31448
4.13241
-0.204513
-4.13241
-0.0894654
-5.40191
-0.172484
5.40191
-0.112586
-3.51918
-0.0502271
3.51918
-0.204695
-4.15735
4.22017
1.98362
-3.26708
-3.22981
-7.48481
1.61005
1.99769
4.15795
-7.07688
-4.14487
-6.90959
6.82292
-6.38185
-6.70343
6.86478
7.69506
-7.92417
-5.81655
5.83595
6.31466
-6.27999
1.82592
1.8699
10.9221
-10.7011
-10.0442
9.96107
10.1658
-10.0936
10.4274
-10.3911
-11.9537
12.1709
-5.58922
5.67861
-6.52131
6.5078
-6.63676
6.60549
-3.15709
-3.22494
8.85742
-8.7355
11.6698
-11.5635
-11.1969
11.4558
3.30041
0.919767
3.39929
-1.86471
3.69063
-1.80866
3.79227
3.31476
-6.47185
3.31564
-6.54545
6.02122
5.64858
-5.9091
-1.57571
-5.80737
5.78643
-5.74403
5.78998
11.0088
-11.2269
-1.90206
3.77196
-1.83813
3.83583
-3.41488
-2.40167
3.37424
0.783716
5.52518
3.33224
-5.61527
-1.29432
-7.59376
7.38924
-7.68915
7.53633
0.0361752
5.58895
-5.62513
5.41803
-1.89558
7.48454
4.92733
5.36133
5.65687
-5.23501
0.724979
-6.35011
-6.47314
-2.32565
2.47206
2.16551
-1.94907
6.60246
1.0926
6.21925
-5.34088
-2.58329
-5.72548
3.86502
1.97093
3.78946
4.05142
2.26324
4.07225
2.967
-2.97539
0.00838594
-3.01445
5.98145
0.796573
-5.41612
-4.6324
7.01717
3.90492
6.88573
-7.33954
-3.3616
-7.0209
-6.11428
-3.92993
-6.32103
6.68685
3.27423
6.36789
-7.64222
7.52963
6.69997
3.46587
6.76735
-6.60753
-3.48603
-6.66298
10.2418
-2.91567
-7.32612
-6.93411
-5.01961
7.05964
3.3678
7.49398
4.67693
7.38437
3.63669
6.60509
-7.00449
1.98488
-3.72584
-1.86338
-3.77193
3.62073
2.05787
3.58982
-4.23704
-2.28427
-4.25859
-4.12206
-2.51471
4.20389
2.30391
-4.25089
-3.43825
4.38878
2.21671
3.33603
-7.48091
3.43359
-6.65853
-6.18464
-2.55086
-6.20672
3.87957
2.70239
-6.58196
-2.59227
10.7134
-5.06486
9.13773
-7.19217
-4.37135
-7.21109
-8.84476
-2.35216
-8.83606
-5.13774
4.97638
-5.60686
5.26073
10.5842
-5.95666
-4.62751
-3.9761
-2.30389
4.03369
-0.634395
-3.6302
3.63858
0.060436
3.85271
4.77248
4.13808
-3.79088
-1.95315
-3.8498
3.79612
1.99386
3.77462
8.55276
2.45609
8.37387
-7.56732
-3.65955
-8.02478
5.5081
-5.63102
2.98863
-2.999
5.14133
2.395
-4.91094
-2.68282
5.84797
-3.05368
-2.79429
-12.4457
7.96785
4.47788
-4.96119
0.456838
2.1233
-4.61653
-2.0869
4.31416
1.04717
9.01502
6.92812
-5.26731
5.59511
6.21158
6.11304
-0.360099
3.88139
-3.73761
5.93639
-0.931462
-5.00493
5.84955
-6.36081
-2.17523
-5.94297
3.76774
-0.141561
0.121078
-0.74621
-1.95888
-0.366774
-1.75996
1.16438
1.00113
1.32349
1.00465
1.46741
-2.48923
0.278293
2.21094
-1.48458
-1.67077
-3.8502
-0.306429
4.15663
5.57419
1.81505
-5.48473
-0.240748
2.7044
-2.61122
-1.4947
-2.3555
1.21207
-2.70677
-3.09975
-2.12248
5.22223
-3.3277
-0.522108
3.23507
0.554386
-3.74943
-2.05793
3.76511
0.307142
-2.89718
5.96408
-3.0669
-4.85033
2.49397
3.48748
4.4649
-4.65436
2.29867
2.35568
-1.16688
5.85613
1.0296
6.05215
-8.97857
5.61697
7.84361
3.61216
-7.93373
0.912826
-8.06575
9.29436
-8.30787
-0.986485
4.72171
4.57265
5.33388
5.25029
-3.33269
8.66657
-1.21128
-7.0966
9.27702
-5.66486
5.44915
-11.114
-10.6994
3.60284
-6.80014
8.40999
-1.60986
-2.29246
-5.34976
9.0926
-0.911212
-8.18138
5.45668
-5.06619
-5.41594
10.4821
-7.98185
8.90198
-2.58342
-6.31856
-6.47761
-3.91344
6.65009
0.879541
-9.58559
11.5705
-2.9805
5.84674
0.920607
5.63743
3.9949
-5.94493
1.95003
3.98695
-6.57038
2.3422
-8.28713
-4.74418
9.39913
-4.65495
-7.29504
-6.54241
-0.75263
1.82705
9.74343
-6.50398
5.23468
1.2693
3.21704
0.557575
-3.30807
-0.463856
0.280431
4.4705
-4.75093
3.87025
4.00134
3.51402
0.956475
3.75945
2.02698
-3.74533
-0.513265
-3.85716
1.34245
-1.55324
-3.43715
4.7796
-3.89074
0.453581
-2.6043
-3.4221
6.0264
-4.46768
2.83566
3.12842
4.82952
-4.7749
1.3528
-2.33134
-2.44355
2.53794
-4.09118
1.84601
2.9336
4.06272
0.624465
4.58632
4.81281
-7.28871
0.630175
8.14505
-6.85073
1.5467
5.83767
-6.78138
0.23897
-5.96775
1.12697
-6.19183
-5.45499
6.4101
-8.76227
-4.70391
8.14951
0.224355
-8.03774
-0.79832
-3.68594
-1.45179
-3.73617
-1.9004
-3.70647
-5.23308
-1.00949
-4.22359
3.96688
-4.21473
-2.10629
4.45098
0.809748
-4.44122
4.32268
-4.44566
4.36196
0.0909128
3.54767
4.22899
1.9251
-2.38079
4.3059
-6.61835
9.07444
-10.7088
4.09046
4.39002
-8.04957
-6.3188
3.41591
2.09219
3.34461
5.6099
-6.96995
1.36005
-6.28737
7.09404
-0.806664
-9.82553
3.53816
-4.21564
2.66907
0.319554
2.65423
0.724015
2.21188
-2.93589
-2.27498
-2.2275
-2.2482
-3.16123
5.40942
0.914627
-3.19924
2.28461
-3.19633
4.11096
-0.20036
-2.99888
4.8709
-2.65902
5.19045
-3.39669
1.79376
3.18895
5.24707
-2.05813
4.07867
-1.68367
1.76537
-3.8235
-1.39585
-2.84337
4.90124
-3.18303
3.63661
-0.150311
3.78693
-3.99272
0.939042
-0.478697
3.52265
3.70053
3.93509
-2.97862
2.6827
-4.36637
-1.1408
-3.7419
-0.808309
-0.705538
-5.11844
5.82398
4.84222
-5.54776
-2.79283
5.57403
-2.7812
4.68876
-3.34437
-1.34439
-2.81145
-2.81957
2.95776
0.923631
5.61239
0.270445
-3.61482
-3.46716
-2.79516
4.65467
1.28172
-0.847808
5.32569
-1.2755
1.39657
0.521096
0.802395
1.11161
-0.590518
-0.0820797
1.19369
-0.828289
1.88716
0.817232
-1.97082
0.210868
-1.75412
2.96619
0.456811
-1.45794
0.867421
2.35611
-3.28757
4.68386
-1.51356
-3.1703
7.03997
1.84337
-3.35693
4.0996
-4.24117
2.73097
-3.0374
-0.625963
-4.86713
-3.77453
-2.19121
4.47582
-3.21821
5.03326
1.37607
-4.79251
6.16858
-3.39948
1.277
-2.61292
3.43016
-0.711474
-1.90145
2.44542
2.77682
-2.80532
0.449823
-0.359906
1.93084
-2.29074
-0.775931
-2.26051
-4.40082
4.70796
-2.16832
4.46699
2.13758
-2.00253
6.46953
1.7535
-3.75603
-3.09683
-3.61894
-1.40035
3.06456
-0.726493
-5.93648
-7.04505
5.87708
0.175077
-8.95386
10.0686
-1.11469
-5.04894
-0.56803
5.28974
-7.22718
0.656801
-4.88498
5.18357
6.21317
6.38825
-8.0554
-0.125979
-4.78118
1.27527
-6.05644
5.84792
-2.76849
6.37132
-6.70783
4.60154
-5.89809
5.38484
-0.671607
5.15959
-3.20956
2.16653
-6.07997
-5.20043
6.96588
-3.50001
7.88649
-4.00162
11.8881
-6.98212
7.08114
4.80697
-1.23634
-5.97474
-6.8424
5.60606
0.238736
5.87617
4.84677
-2.81979
4.33351
2.04195
-4.37329
-2.04924
-6.36128
1.988
-3.23287
-1.70504
3.69304
3.12448
3.68205
1.24948
-3.2182
6.55393
-7.30656
-1.89898
-3.55601
6.82792
-1.22186
3.73527
-7.29128
-2.45657
5.20976
-0.454538
-4.75522
0.746899
-5.45081
2.48879
-7.9396
6.27348
-7.0718
1.20143
-5.41706
-3.23979
-3.26591
-1.27842
-3.16724
-4.52072
3.24229
-0.982555
3.34012
-5.22927
4.77473
-1.86477
5.10706
-3.30685
-0.429322
3.51154
0.850417
5.95748
-0.40278
-5.91602
-1.49679
5.63346
-4.13666
3.15787
-5.52122
0.11224
3.46367
3.57631
-7.23141
-0.818163
-6.73418
-2.39619
4.48838
3.17784
8.02006
1.05011
4.99524
-0.506859
6.04534
2.83775
2.70201
-3.81764
5.1777
2.00633
6.0968
-0.861002
2.65477
1.79322
1.8579
0.753317
2.22685
1.47369
3.16589
0.229995
-1.9975
3.15127
-5.94643
-0.463551
-5.3567
1.50808
3.9165
-2.40841
4.73825
-3.45653
0.60159
2.65413
-1.77185
-0.882286
-2.3508
-0.375273
0.818422
-1.04729
1.91471
1.91891
-2.73313
0.382333
-0.0245865
-3.74995
3.06199
-2.61216
0.164655
6.33323
-2.33825
0.0475044
-1.06125
-2.213
-2.57978
2.36891
6.06133
0.408198
2.99443
5.11616
3.05823
0.238435
4.24459
-5.85445
-4.04254
-5.98043
-0.132506
5.15723
1.74461
7.99882
6.55158
5.32972
-1.96156
-9.26812
7.24387
-2.06617
6.4372
-1.68198
-6.25762
6.51716
2.55728
-6.74151
-0.330286
-6.5879
-8.65407
-0.413736
5.18847
-5.54374
5.11442
3.66263
0.56096
-2.77829
-0.487612
2.84268
-0.140669
5.90468
-1.08433
-5.50657
6.5909
-2.83217
2.36862
5.07899
0.246703
4.1967
0.740165
-4.76641
-7.17482
-1.17845
-2.10913
-4.34874
-0.192111
-1.7268
3.90284
-1.53422
2.55845
5.05668
5.65827
-1.56608
-3.98168
4.34728
-1.78883
3.86944
)
;

boundaryField
{
    wall-4
    {
        type            calculated;
        value           uniform 0;
    }
    velocity-inlet-5
    {
        type            calculated;
        value           uniform -3.75095;
    }
    velocity-inlet-6
    {
        type            calculated;
        value           uniform -5.62643;
    }
    pressure-outlet-7
    {
        type            calculated;
        value           nonuniform List<scalar> 8(7.14131 6.26973 6.03188 6.93866 6.46193 6.60601 6.49523 6.56859);
    }
    wall-8
    {
        type            calculated;
        value           uniform 0;
    }
    frontAndBackPlanes
    {
        type            empty;
        value           nonuniform 0();
    }
}


// ************************************************************************* //
