/*--------------------------------*- C++ -*----------------------------------*\
  =========                 |
  \\      /  F ield         | OpenFOAM: The Open Source CFD Toolbox
   \\    /   O peration     | Website:  https://openfoam.org
    \\  /    A nd           | Version:  6
     \\/     M anipulation  |
\*---------------------------------------------------------------------------*/
FoamFile
{
    version     2.0;
    format      ascii;
    class       volVectorField;
    location    "1";
    object      U;
}
// * * * * * * * * * * * * * * * * * * * * * * * * * * * * * * * * * * * * * //

dimensions      [0 1 -1 0 0 0 0];

internalField   nonuniform List<vector> 
918
(
(0.789709 -0.15999 0)
(0.0184698 2.96917 0)
(-0.272994 1.77298 0)
(0.690876 0.178205 0)
(0.0121712 1.72611 -7.57615e-20)
(-0.0857907 2.88702 -3.17537e-19)
(1.15492 1.73944 5.00784e-19)
(0.479943 0.287755 -2.09604e-20)
(0.82337 0.00686729 0)
(0.0483406 1.76475 0)
(0.0284233 1.7347 0)
(0.933372 0.011615 0)
(-0.0613166 3.12253 0)
(0.0318708 2.94275 0)
(-0.0962875 2.71339 4.86841e-19)
(-0.029662 1.71425 -4.8117e-20)
(0.702993 0.1647 1.73152e-18)
(0.243045 2.04658 4.56565e-19)
(0.978041 0.0786389 0)
(0.0432763 1.71204 0)
(0.646234 0.0833607 2.72172e-19)
(0.632114 -0.0266409 0)
(0.797834 0.0382778 0)
(1.07049 0.064861 0)
(0.853564 0.0689179 0)
(0.0609028 2.9731 0)
(-0.0166823 2.84688 1.16745e-19)
(-0.250449 1.78512 0)
(-0.0645194 1.65414 0)
(-0.308265 1.75854 0)
(0.0206586 1.73307 0)
(-0.114244 1.67419 5.9581e-20)
(-0.0344907 1.69635 0)
(-0.044657 3.04047 5.66099e-24)
(-0.000818218 2.9832 2.67541e-19)
(0.0307078 3.01073 0)
(0.985203 -0.00656562 0)
(0.825038 1.26811 3.85499e-19)
(1.17879 1.68747 -4.86851e-19)
(1.26459 1.55683 4.6487e-19)
(0.977503 1.85728 -1.20481e-19)
(0.937709 1.94168 7.49282e-19)
(0.525465 0.304361 2.04531e-20)
(0.535292 0.281404 0)
(1.38342 0.795777 0)
(0.463523 0.318039 8.32266e-20)
(0.417717 0.286062 -8.63824e-20)
(0.99643 -0.0087206 0)
(0.886451 0.0106326 0)
(0.826233 -0.00109826 0)
(0.843436 -0.123806 0)
(0.839411 0.0532063 0)
(0.840783 0.0332752 0)
(-0.0221864 1.57985 -7.68319e-19)
(0.0339135 1.83856 0)
(0.0173145 1.8419 0)
(-0.0126999 1.7991 0)
(-0.00901015 1.81788 0)
(-0.0336649 1.71387 0)
(0.0373944 1.76973 0)
(-0.00124941 1.75404 0)
(0.00334445 1.73559 0)
(0.0032962 1.71321 0)
(1.00278 -0.00969304 0)
(0.966821 0.0315344 0)
(0.960932 0.000272367 0)
(0.948938 -0.00199671 0)
(0.945279 0.000414418 0)
(-0.00751004 2.9753 1.21802e-19)
(0.0342588 2.91564 0)
(-0.0402266 2.95812 0)
(-0.0865703 3.11646 -2.07441e-24)
(-0.144294 2.90699 -2.00855e-19)
(-0.0250207 3.12537 0)
(0.0204587 3.02848 0)
(0.0295371 2.99386 -3.7807e-25)
(2.92576e-05 2.91497 0)
(0.0770449 2.99842 0)
(0.0775544 2.88084 0)
(0.14806 2.86678 0)
(-0.108506 2.90817 0)
(-0.0024662 2.76905 -4.52371e-19)
(-0.125514 2.65418 0)
(0.00308165 1.72367 0)
(-0.0332578 1.74765 4.74495e-20)
(0.019479 1.72236 -6.27282e-20)
(0.73053 0.170893 -5.92803e-19)
(0.739426 0.15331 -5.6948e-19)
(0.697071 0.22536 -1.79013e-18)
(0.661804 0.205498 -1.15297e-18)
(0.203811 1.39955 0)
(0.365893 2.11497 -4.95308e-19)
(0.468694 2.10883 8.50901e-19)
(0.980654 -0.00908194 0)
(0.978395 -0.00745147 0)
(0.812668 -0.0236415 0)
(0.933573 0.0152094 0)
(1.01457 0.161077 -5.61653e-18)
(1.11099 0.232393 4.20028e-18)
(0.0393683 1.77507 0)
(-0.00943366 1.74464 0)
(0.0449153 1.71952 0)
(-0.0168609 1.73993 0)
(-0.0245822 1.74507 0)
(0.723511 0.152534 -1.6194e-20)
(0.385921 0.363212 0)
(1.05879 0.0114097 0)
(1.00867 -0.00922009 0)
(0.94296 0.0279028 0)
(0.895328 0.104023 0)
(0.903847 0.0247329 0)
(1.13838 -0.0280592 0)
(0.849767 0.0501759 0)
(0.830212 0.0373848 2.67511e-18)
(-0.0843877 2.86399 -1.8027e-19)
(-0.0243142 2.96508 0)
(-0.0318326 3.05847 0)
(0.00643814 2.92196 0)
(-0.000936886 2.92652 3.20324e-20)
(0.0684914 2.8606 0)
(-0.0392685 2.92409 -2.89568e-19)
(-0.124133 2.84785 1.42539e-19)
(0.0559308 1.72454 0)
(-0.011385 1.7466 0)
(-0.0151165 1.72064 -2.4397e-21)
(-0.0495069 1.73143 0)
(0.022172 1.71107 0)
(1.00437 0.00697513 0)
(0.989788 -0.0114834 0)
(0.979518 -0.0088006 0)
(0.999135 0.000854092 0)
(0.98151 0.0107281 0)
(0.917381 1.32726 -4.84443e-19)
(0.886414 1.22745 0)
(0.811067 1.33122 6.45748e-20)
(0.770748 1.25153 0)
(1.22179 1.44446 -1.1242e-19)
(1.37251 1.26943 1.39809e-19)
(0.569908 2.12109 0)
(0.796101 2.02073 0)
(0.719039 2.06015 0)
(0.522383 1.25357 -4.48918e-19)
(0.566366 0.308209 0)
(0.573658 0.251897 3.05403e-19)
(1.2467 1.21029 0)
(1.28616 0.953314 0)
(1.38682 1.02075 3.87306e-20)
(1.3327 0.754501 0)
(1.38944 0.609056 7.40647e-20)
(0.993091 0.0189884 0)
(1.00849 -0.0220614 0)
(0.985432 -0.0109754 0)
(1.00311 0.00450266 0)
(1.00298 -0.0119743 0)
(0.981132 0.00470252 0)
(0.840837 -0.0216058 0)
(0.848132 -0.0143648 0)
(0.835603 0.00432565 0)
(-0.0289335 1.64221 3.81811e-19)
(0.0422659 1.58946 0)
(0.0249826 1.644 7.54479e-19)
(0.0295694 1.66548 -6.26942e-19)
(0.113938 2.01318 -3.83575e-19)
(-0.000582124 1.91136 0)
(0.0312629 1.95884 0)
(-0.0056375 1.81372 0)
(0.00613038 1.76096 0)
(-0.0437896 1.75278 -1.27304e-21)
(0.00874109 1.73513 0)
(0.0279813 1.73848 -1.55731e-19)
(0.0464553 1.74323 2.62546e-19)
(0.0221964 1.75837 0)
(0.0191631 1.76366 0)
(0.00669572 1.73427 0)
(-0.00604492 1.75253 0)
(-0.00829237 1.77543 0)
(1.03171 0.0278349 0)
(1.02947 0.011346 0)
(1.02353 -0.0120313 0)
(1.00188 0.00599956 0)
(0.977109 -0.00426459 0)
(0.97832 0.00251499 0)
(0.966798 0.012392 0)
(0.947466 0.0007785 0)
(0.0672732 3.08783 -1.06448e-21)
(0.113138 3.03972 0)
(0.0590436 3.03545 0)
(0.0294712 2.91361 0)
(0.623095 3.07574 0)
(0.868122 2.57016 5.17171e-19)
(-0.0394013 2.80585 0)
(-0.0716096 2.7406 0)
(-0.0173309 1.80941 0)
(-0.00572764 1.67178 0)
(0.000935347 1.73429 0)
(0.105179 1.83231 -1.0506e-19)
(-0.0104173 1.80681 0)
(0.0935828 1.77085 0)
(0.0255621 1.72606 4.16198e-20)
(0.0227749 1.74303 1.03359e-19)
(0.00627859 1.72806 6.44745e-20)
(0.0114272 1.70094 0)
(0.761037 0.163162 9.4275e-19)
(0.754031 0.0831744 -9.38082e-19)
(0.216429 1.41371 0)
(0.227652 1.33635 -2.61605e-19)
(0.156102 1.5067 -7.70615e-19)
(0.102324 1.47821 7.6996e-19)
(0.995475 -0.00805529 0)
(0.991926 -0.0190476 0)
(0.993648 0.00366219 0)
(0.966444 0.00868512 0)
(-0.00195182 1.78554 0)
(0.0147557 1.75885 0)
(0.00746902 1.75198 0)
(0.421741 0.298779 6.83136e-19)
(0.446377 0.268665 -5.8975e-19)
(0.380098 0.29099 0)
(1.18931 0.118665 8.58227e-20)
(1.25945 0.0475821 0)
(1.13445 0.0365019 0)
(1.07916 0.0107077 0)
(0.785676 0.102419 0)
(0.82533 0.0511924 -4.39323e-18)
(0.772851 0.0481058 1.68714e-18)
(-0.0464143 2.97388 -1.67555e-19)
(0.0387156 2.90375 -4.82731e-21)
(0.157594 2.99609 -5.39821e-21)
(0.21389 3.01885 -7.75627e-20)
(-0.104094 2.90774 1.05317e-20)
(-0.167932 2.93693 9.276e-24)
(-0.166858 3.05004 6.06464e-20)
(0.155946 2.9931 -4.67891e-20)
(0.239041 3.08705 8.98934e-20)
(1.01724 0.0141192 0)
(1.00165 0.0394224 0)
(0.995741 0.0229425 0)
(0.995225 -0.0128971 0)
(0.985228 -0.0119257 0)
(0.966218 -0.00164798 0)
(0.982235 -0.00961081 0)
(0.997381 0.0179682 0)
(0.967099 0.00863082 0)
(0.966236 1.28023 -3.32849e-19)
(0.871459 1.27393 0)
(0.679587 1.26047 1.25372e-19)
(0.703003 1.33938 9.56295e-19)
(0.778083 1.32722 -5.85138e-19)
(0.736666 1.26808 1.11524e-18)
(0.501276 1.31373 2.17807e-18)
(0.515169 1.27829 3.91331e-19)
(0.663211 0.241655 1.19617e-18)
(0.621988 0.271196 2.97427e-19)
(0.636562 0.240687 5.60011e-19)
(1.29665 0.550888 -3.58789e-19)
(1.34769 0.37995 -4.4985e-19)
(0.00741448 1.70201 2.62956e-19)
(0.00968873 1.67782 0)
(1.07744 0.0411978 0)
(1.05989 0.00416349 0)
(1.03607 -0.00911243 0)
(0.0443053 3.0983 0)
(0.00197768 2.9765 -4.79634e-20)
(0.00749478 2.98444 0)
(-0.0163907 2.90067 4.99292e-20)
(0.0141805 3.09266 -1.15289e-20)
(0.0363232 3.09603 0)
(0.842964 1.37007 -4.41971e-20)
(0.881352 1.96912 1.2972e-19)
(0.700816 1.51088 -6.12286e-19)
(-0.056395 2.91748 1.67768e-19)
(-0.0387698 2.84967 0)
(-0.0696055 2.80122 0)
(-0.052547 1.77308 -5.27017e-22)
(0.0286991 1.70918 -2.92433e-19)
(-0.0541088 1.6738 4.64392e-20)
(0.252859 1.38505 8.12373e-19)
(0.293364 1.3245 -5.47574e-19)
(0.0442229 1.61207 5.13882e-19)
(0.0864936 1.55667 -6.31889e-19)
(0.0566907 1.55028 8.15384e-20)
(-0.0823484 3.10362 5.00518e-19)
(-0.0661749 3.12462 -6.34335e-19)
(0.0240726 2.94081 -7.66475e-20)
(0.0717617 2.97142 1.62604e-19)
(0.11254 2.89429 7.79895e-20)
(0.0220043 3.078 1.986e-19)
(-0.0578223 3.07771 -2.40032e-19)
(0.535083 1.32303 0)
(0.613915 1.33309 -2.10627e-18)
(0.588463 1.22699 9.42586e-19)
(0.43014 1.36715 1.15242e-18)
(0.415077 1.28594 -1.79943e-18)
(1.27452 0.173919 2.81007e-19)
(1.30536 0.366798 0)
(1.32886 0.236628 -2.43735e-19)
(0.0144969 1.7345 -3.03873e-21)
(-0.0122771 1.70967 0)
(0.00255178 1.68995 0)
(0.314019 1.38445 -2.89569e-19)
(0.365093 1.35575 -6.58522e-19)
(0.381606 1.34034 1.23335e-18)
(1.016 -0.0888094 0)
(1.11073 -0.144483 1.04143e-18)
(0.0578356 1.73863 0)
(0.0029366 1.73577 0)
(1.04957 -0.0405854 6.13769e-20)
(0.914515 -0.0927577 2.25455e-18)
(0.00170828 1.82589 1.3964e-19)
(0.087954 1.79264 0)
(-0.0712599 2.94527 -1.47061e-19)
(-0.0169962 2.56054 0)
(1.18851 0.627942 -2.81818e-19)
(1.06563 -0.0126998 -3.06141e-20)
(1.07766 0.0468629 0)
(1.01253 -0.00325842 -6.42009e-21)
(0.0452708 1.92867 0)
(0.143596 1.78989 0)
(-0.0494287 1.80817 0)
(0.12025 1.85998 1.22492e-19)
(0.0165289 1.85882 1.12134e-20)
(1.01616 -0.00867045 1.05071e-20)
(1.11842 0.0754838 0)
(1.12383 0.048668 0)
(-0.00511529 1.73503 0)
(0.0509298 1.79236 0)
(-0.04938 1.81608 0)
(0.225651 1.99592 -1.44305e-19)
(0.987987 -0.0992285 0)
(0.981678 -0.0680585 0)
(0.986919 0.10056 1.36541e-18)
(0.988447 0.0320121 -1.56818e-18)
(1.12114 -0.0421717 0)
(-0.00810375 1.72462 0)
(0.0133389 1.73481 0)
(-0.0129944 1.74411 0)
(-0.0346003 1.84517 0)
(-0.044909 1.76214 0)
(0.00578636 1.71198 0)
(1.03661 0.00463551 0)
(1.05552 -0.0160689 -1.73836e-21)
(0.882742 1.73016 2.39777e-19)
(1.01053 -0.112684 -1.35673e-18)
(1.04168 0.0644016 1.68184e-18)
(1.14346 0.0611044 0)
(0.977194 -0.00112834 1.34971e-18)
(1.01939 0.0385117 -1.68704e-18)
(0.993011 0.0250148 0)
(0.0232637 1.81416 0)
(0.0535794 1.74695 9.68221e-20)
(-0.01722 1.72929 -6.35489e-20)
(1.23549 0.321907 1.69489e-18)
(1.16445 0.0898195 0)
(-0.289553 3.02081 1.7955e-19)
(-0.0274341 3.12165 2.239e-20)
(-0.173702 2.9825 1.05052e-19)
(-0.033171 2.93187 1.1585e-19)
(-0.0280856 2.8833 0)
(-0.0474469 2.9654 -5.49077e-20)
(-0.0942713 3.10721 -1.95862e-19)
(-0.0715703 3.01357 1.10712e-19)
(-0.0982529 3.08125 0)
(0.663801 0.287383 0)
(0.508345 0.357567 0)
(1.07939 0.827513 8.01999e-19)
(1.15057 0.935629 -9.80583e-19)
(1.13694 0.588085 0)
(1.14122 0.633908 0)
(1.05784 0.0271299 -2.49735e-18)
(0.994681 0.0128866 3.27807e-18)
(1.08271 -0.0699297 0)
(1.00205 -0.0785056 0)
(0.898858 0.0708021 0)
(1.04631 -0.0350084 0)
(1.00536 0.0223781 0)
(0.996149 -0.0585109 0)
(1.04469 -0.113446 0)
(0.97638 0.0256439 0)
(0.0231422 1.90998 0)
(-0.00291963 1.81981 0)
(0.113175 1.84844 0)
(0.186022 1.8774 0)
(0.109008 1.65648 0)
(0.0624117 1.64627 -4.03972e-19)
(0.155188 1.75327 0)
(0.0704937 1.68687 2.47127e-19)
(0.0989406 1.77564 -1.81315e-19)
(-0.0107646 1.83871 0)
(0.0686881 1.74957 0)
(-0.0604412 1.77004 0)
(-0.0787581 1.76103 0)
(-0.0480275 1.79674 -6.71508e-21)
(-0.0353759 1.69418 2.58233e-19)
(0.0699381 1.8538 6.74179e-20)
(0.000437709 1.76258 0)
(0.0110488 1.83386 -1.03678e-19)
(-0.00293637 1.75024 -2.92572e-19)
(0.0501905 1.8292 -4.68973e-20)
(-0.118924 1.54313 -3.23266e-19)
(0.10871 1.74968 -8.62481e-20)
(0.993726 -0.0335601 2.30372e-18)
(0.990154 -0.0740837 -2.97876e-18)
(1.00477 0.0261344 -2.383e-18)
(0.925561 0.0103339 3.1905e-18)
(1.06532 0.0496709 0)
(1.01909 0.0228456 0)
(1.01117 0.0318507 0)
(1.08721 0.0106613 0)
(0.997256 -0.00673455 0)
(1.06666 0.076172 0)
(1.10625 0.0216215 0)
(1.03765 0.0235692 0)
(-0.196553 1.69325 -7.77401e-21)
(0.0599892 1.78262 0)
(-0.090315 1.73283 0)
(0.0584664 1.74128 3.19271e-20)
(0.0641738 1.77908 -2.06823e-21)
(0.0249245 1.83514 -6.4486e-21)
(-0.119498 1.72304 6.30514e-21)
(-0.0742116 1.76795 0)
(-0.0268326 1.81018 0)
(0.0979539 1.7709 0)
(-0.0750602 1.76367 0)
(-0.0845937 1.79358 0)
(0.371333 1.89583 1.642e-19)
(0.436865 1.99852 1.47605e-19)
(0.315438 1.49322 -1.97867e-19)
(0.243869 1.60537 4.67129e-19)
(0.333376 1.76358 6.19941e-20)
(1.01387 0.031412 0)
(0.993114 0.0263375 0)
(1.01681 0.0765659 0)
(0.976775 -0.0489508 0)
(0.995121 -0.0451639 0)
(0.900168 0.0389213 0)
(1.00088 0.161511 0)
(1.04805 0.0921545 0)
(0.99602 -0.0417411 2.4704e-18)
(1.00557 -0.0479976 -3.19386e-18)
(1.04264 0.0129596 -2.41477e-18)
(0.979703 0.0328439 3.2076e-18)
(0.861752 1.71504 0)
(0.827103 1.7098 4.50962e-20)
(0.856294 1.58609 -8.72725e-20)
(0.95083 1.53136 1.17216e-19)
(0.883255 1.55243 1.70704e-18)
(0.876077 0.099991 1.05001e-18)
(1.14168 0.0936787 0)
(1.14237 0.254966 -1.40332e-18)
(1.10241 0.114079 -5.94356e-20)
(0.971808 0.158589 0)
(-0.610742 2.78794 2.24777e-19)
(-0.354178 2.79881 1.25425e-19)
(-0.28306 3.13714 -2.52139e-19)
(-0.410407 1.4063 3.21566e-19)
(-0.0998809 2.72936 -1.0206e-19)
(0.0185877 2.85157 0)
(0.0840906 2.75355 1.33699e-19)
(-0.537941 2.7666 -5.91552e-19)
(-0.534729 2.63731 0)
(-0.0596178 3.0287 -1.36904e-20)
(-0.0828606 3.08527 3.41702e-20)
(-0.0527381 3.07128 -5.63945e-20)
(-0.0412196 3.08782 0)
(-0.0684292 3.00805 0)
(1.06219 1.79094 0)
(0.188993 1.14762 -9.08434e-19)
(1.07497 1.18858 2.72755e-19)
(0.91806 1.44111 0)
(0.809217 1.16731 -3.38029e-19)
(1.00811 1.15505 5.46073e-20)
(0.257753 -0.135958 -2.87023e-19)
(0.648401 0.272313 1.28436e-22)
(0.625319 0.309877 6.26957e-19)
(0.474497 0.404907 3.50135e-20)
(0.390565 0.33192 -1.35081e-18)
(0.604058 0.392802 0)
(0.612252 0.458922 9.9283e-19)
(0.599703 0.349499 0)
(0.481454 0.367668 0)
(0.507127 0.348602 0)
(0.592022 0.759887 8.06893e-19)
(1.23998 0.256769 -1.31985e-18)
(1.13795 0.460322 0)
(1.20927 0.262284 0)
(0.788463 0.219607 9.77261e-19)
(0.594012 0.655732 -6.63152e-19)
(0.583521 0.513065 1.22798e-18)
(0.848164 0.406892 -1.31237e-18)
(0.988166 -0.00467977 1.73499e-18)
(1.01073 0.1254 -1.76701e-18)
(0.986262 0.0779333 0)
(1.00678 -0.0259828 0)
(0.991632 -0.0509135 -1.6688e-18)
(0.996115 0.0179549 1.65269e-18)
(0.980386 0.0692858 0)
(0.9682 0.00521427 0)
(1.06087 -0.0214234 0)
(0.968158 -0.0149761 0)
(1.03162 -0.0449499 0)
(0.996504 -0.0673192 0)
(0.0982101 1.81618 0)
(0.132217 1.79677 0)
(0.0532246 1.86138 -8.85701e-20)
(0.241205 1.98241 3.44488e-20)
(0.258814 1.91042 -1.78009e-20)
(0.167254 1.94601 -2.49157e-20)
(-0.0250445 1.80631 0)
(0.295314 1.73668 -2.93283e-19)
(0.0574906 1.89121 0)
(0.309122 1.75849 -8.64984e-20)
(0.20771 1.62078 6.38064e-19)
(0.274779 1.71294 2.60004e-19)
(0.190811 1.83088 -4.81228e-20)
(0.0731049 1.7104 4.00723e-20)
(0.200524 1.85812 -1.62608e-19)
(0.229622 1.73282 0)
(0.239227 1.72351 1.24387e-19)
(0.0522826 1.70281 -9.88734e-20)
(0.0449623 1.70082 0)
(0.00373526 1.72366 2.58403e-19)
(-0.0511273 1.71938 0)
(0.0137498 1.71079 -2.73874e-19)
(0.0143304 1.68149 0)
(0.0309247 1.7574 -7.59761e-20)
(0.0994211 1.75565 0)
(0.0633888 1.73195 0)
(0.0398287 1.78566 8.99921e-20)
(0.0750685 1.68945 1.16368e-19)
(0.0626434 1.78155 2.17635e-19)
(0.0259726 1.69461 2.54527e-21)
(0.109401 1.66395 1.97331e-20)
(0.0628916 1.61608 3.50503e-20)
(-0.0227283 1.72364 0)
(-0.126893 1.769 0)
(-0.0312766 1.75329 1.12872e-19)
(-0.0874918 1.75728 2.65403e-19)
(0.0219359 1.78308 -2.7396e-19)
(-0.0264879 1.79271 0)
(0.0319484 1.71581 -2.68793e-19)
(-0.0831918 1.67715 2.29792e-20)
(-0.0608193 1.81869 9.07558e-21)
(0.143119 1.90737 -2.31038e-20)
(0.118967 1.56177 -9.81663e-20)
(-0.0524361 1.6877 1.39801e-19)
(0.989215 0.0524372 -1.711e-18)
(0.987756 -0.076275 1.61398e-18)
(0.978117 0.0497939 0)
(0.987141 -0.0766199 2.34016e-18)
(0.908386 0.144672 -2.57515e-18)
(0.938198 0.0631309 2.79414e-18)
(0.971753 -0.048187 -2.91283e-19)
(1.07685 -0.0859596 0)
(1.0124 -0.0166226 1.61944e-18)
(0.995887 -0.0630819 -1.61135e-18)
(0.943839 0.00952197 -8.97246e-20)
(0.972537 0.100118 7.57341e-19)
(0.991192 0.103183 0)
(0.958946 0.0515554 -2.7946e-19)
(0.998845 0.0487706 0)
(0.958892 0.0679416 0)
(1.01314 0.0883539 0)
(0.972891 0.00351023 0)
(1.0374 0.0790855 5.68968e-19)
(1.0327 0.0458166 -1.31718e-18)
(0.958831 -0.0197966 -5.91378e-19)
(0.984526 -0.000642548 -6.58527e-19)
(1.10329 0.0859198 1.26714e-18)
(0.995936 0.0741976 0)
(0.92993 0.0103509 0)
(0.0299932 1.86987 9.43946e-20)
(0.181869 1.72977 -7.23346e-21)
(0.0571223 1.71759 0)
(0.0483391 1.80284 -9.62011e-20)
(-0.152215 1.76991 1.4863e-20)
(-0.0392585 1.71949 -2.84265e-20)
(-0.08943 1.77736 2.45229e-19)
(0.0752099 1.76716 -1.11017e-20)
(0.183226 1.68855 8.26727e-20)
(-0.03619 1.76192 -1.12048e-19)
(-0.0857376 1.77572 1.31081e-19)
(0.0364816 1.71025 -2.34147e-20)
(-0.0201677 1.75172 2.00466e-19)
(0.480824 1.77449 -1.82181e-20)
(0.381917 1.75888 2.58142e-19)
(0.757378 1.77812 -4.45871e-20)
(0.590662 1.92656 -1.41955e-19)
(0.645719 1.92662 0)
(0.268463 1.45178 2.22703e-19)
(0.265112 1.4151 2.87709e-19)
(0.22865 1.48182 4.7927e-20)
(0.371869 1.51523 -6.85711e-19)
(0.399433 1.47228 6.84246e-19)
(0.290357 1.52793 0)
(0.174702 1.45761 -4.72516e-19)
(0.0694074 1.61866 1.00244e-18)
(0.145562 1.66128 8.70978e-21)
(0.0286726 1.56378 -1.28008e-18)
(0.649285 1.4245 1.2646e-18)
(0.47345 1.45628 0)
(1.02084 0.130208 5.24809e-20)
(1.0206 -0.119425 -4.61376e-20)
(0.940568 -0.125546 -8.46759e-19)
(0.987198 0.000163274 8.48788e-19)
(0.981705 0.0664009 0)
(0.808591 1.59888 0)
(0.8197 1.62688 0)
(0.923074 1.30597 0)
(0.635407 1.40171 0)
(0.872218 1.55783 -1.28574e-21)
(0.829331 1.53373 0)
(0.615191 1.49172 8.34077e-21)
(0.466242 1.50219 0)
(0.568341 1.52553 -7.90828e-19)
(0.568476 1.48001 5.31569e-19)
(0.844352 0.102702 0)
(0.813343 0.115265 2.79811e-19)
(0.88875 0.0796201 1.71455e-18)
(0.852785 0.0840171 -6.0747e-19)
(0.833797 0.115481 -1.97304e-18)
(1.09396 0.14774 -1.91711e-18)
(0.778374 0.360864 -5.11306e-20)
(0.897414 0.204279 1.52553e-18)
(0.935133 0.070828 1.44843e-18)
(0.858401 0.177873 -2.29757e-18)
(0.902298 0.255733 2.82717e-19)
(0.720854 0.315404 -6.63623e-19)
(0.877963 0.289319 0)
(0.953156 0.134608 1.08981e-18)
(0.954409 0.214549 0)
(1.02669 0.147391 0)
(0.977224 0.192679 6.39648e-19)
(0.945867 0.306722 -1.1861e-20)
(0.88435 0.107439 -3.76805e-19)
(0.942005 0.100761 0)
(0.962941 0.0607894 1.2456e-18)
(0.978923 -0.078232 1.56379e-18)
(1.08215 0.0738508 -1.19175e-18)
(0.993171 0.119724 -1.05463e-18)
(0.922109 -0.00441158 -1.68576e-18)
(0.895375 0.184954 0)
(0.953563 -0.00763714 0)
(0.914208 0.0993911 -9.97066e-19)
(0.912199 -0.0216135 3.67033e-19)
(1.01248 0.120562 1.43082e-18)
(1.06282 0.105505 -1.8181e-18)
(0.957376 0.130249 1.59946e-18)
(0.914657 0.204095 0)
(1.00074 0.122697 0)
(0.936765 0.092453 -6.93885e-19)
(0.9626 0.0952094 -1.16466e-18)
(0.635434 1.54677 3.76988e-19)
(0.586937 1.54379 -4.25093e-19)
(0.771659 1.58043 -5.50046e-19)
(0.725038 1.76568 1.4256e-19)
(0.904317 1.60375 -1.42206e-18)
(1.08315 1.76163 3.72777e-19)
(1.08314 1.64682 -5.42925e-20)
(0.871452 1.71431 -5.67729e-19)
(0.808402 1.67106 8.42843e-19)
(0.849633 2.06667 1.08572e-19)
(1.00607 1.98855 -1.13745e-19)
(1.05018 2.01377 0)
(0.41991 1.34187 -9.67944e-20)
(-0.818084 1.76917 1.8032e-19)
(-0.208097 0.271692 3.27363e-19)
(-0.462323 0.662714 -3.61428e-19)
(0.347535 0.37083 7.6175e-19)
(0.291676 0.342356 -1.39762e-18)
(0.262704 0.372825 1.09588e-18)
(0.235473 0.273584 -2.27157e-19)
(0.343276 0.232411 6.37787e-19)
(0.763066 0.282271 -5.75308e-19)
(0.641727 0.334193 0)
(0.657268 0.26416 1.37545e-20)
(0.551697 0.475884 5.36141e-19)
(0.389743 0.565603 -1.94445e-18)
(0.355941 0.422115 -4.93704e-20)
(0.421356 0.39595 0)
(0.47385 0.984967 7.51544e-19)
(0.708709 0.918872 8.38834e-19)
(0.6504 1.09566 -9.83413e-19)
(0.672442 0.942976 -3.78129e-19)
(0.899574 0.91345 -1.22777e-19)
(0.902991 1.03842 1.27794e-19)
(0.727735 0.690354 -1.36136e-18)
(0.74584 0.938417 3.5704e-19)
(0.977596 0.822436 0)
(0.871244 0.778334 -4.96237e-19)
(0.872651 0.396324 4.17249e-19)
(0.994818 0.373949 7.49294e-19)
(1.12781 0.295399 7.49211e-19)
(0.882869 0.434853 -8.64728e-19)
(1.04512 0.346588 0)
(0.97793 0.370951 0)
(0.736385 0.402319 3.49414e-20)
(0.773865 0.284374 0)
(0.674977 0.347741 6.98399e-19)
(0.949137 0.237786 -4.07803e-20)
(0.88689 0.535246 3.60025e-18)
(0.701342 0.533525 1.06026e-18)
(0.735763 0.547942 -9.90405e-19)
(0.701759 0.418337 1.04686e-18)
(0.637116 0.521675 6.07887e-19)
(0.601435 0.400162 -5.94447e-19)
(0.987614 0.126432 1.35307e-18)
(0.963106 -0.125273 0)
(0.989186 0.0206128 9.17984e-19)
(0.90871 0.165017 -2.03442e-18)
(1.038 -0.0420447 9.78495e-19)
(0.958881 0.0613116 -2.02255e-18)
(1.03586 -0.0114201 0)
(0.971178 -0.0538837 -4.32369e-19)
(0.990146 0.0949862 1.10861e-18)
(0.954909 0.00555212 -5.83829e-19)
(0.951035 -0.120462 4.13115e-19)
(-0.0761355 1.78738 0)
(0.21982 1.71909 0)
(0.0236295 1.78354 0)
(-0.0295098 1.82669 0)
(0.0662863 1.79696 2.14997e-19)
(0.0902576 1.76125 -7.82219e-20)
(0.0820456 1.69983 -9.19561e-20)
(0.215522 1.67176 5.07432e-20)
(-0.0582991 1.74448 -2.7899e-19)
(0.0521957 1.73287 2.01887e-19)
(0.00853627 1.84397 9.25828e-21)
(0.0415281 1.75921 -1.24599e-19)
(0.00912803 1.7163 -3.82428e-20)
(0.17714 1.78457 -3.31681e-20)
(0.0223083 1.67835 -2.75457e-19)
(0.108414 1.6749 0)
(0.112531 1.71652 1.61833e-19)
(-0.0106752 1.81383 6.77852e-20)
(0.146615 1.64571 -1.56084e-19)
(0.153645 1.61514 0)
(0.156782 1.5803 -6.65604e-19)
(0.143567 1.61768 4.9548e-19)
(0.221671 1.65527 -3.92062e-19)
(0.197124 1.68613 2.86115e-19)
(-0.051009 1.4998 0)
(0.052694 1.65392 -1.25979e-19)
(-0.00868873 1.59833 -3.93935e-19)
(-0.0648295 1.60175 0)
(0.0697082 1.7994 1.78203e-20)
(0.0565447 1.78055 7.19671e-20)
(0.00305132 1.82367 2.90901e-20)
(0.040821 1.67669 -5.32856e-19)
(-0.013544 1.74465 1.74854e-19)
(-0.0890998 1.66783 1.55209e-19)
(0.0477582 1.84705 0)
(-0.0031355 1.90158 0)
(0.00503788 1.75836 1.39141e-19)
(0.0869532 1.71209 -5.43586e-20)
(-0.0126701 1.84504 0)
(-0.020109 1.78793 7.20716e-20)
(0.0695261 1.74007 -1.63232e-19)
(0.962239 0.230861 0)
(1.08293 0.178902 -1.50908e-19)
(0.98271 0.0849766 -9.71513e-19)
(0.907113 -0.0199855 0)
(0.955253 -0.140665 0)
(1.11891 -0.121268 -5.66937e-20)
(0.99038 -0.165015 1.74374e-18)
(0.976656 -0.00227455 2.00342e-18)
(0.989379 0.00272303 0)
(0.999685 -0.00788924 0)
(0.958123 -0.0432325 1.04852e-18)
(0.978963 0.0442271 0)
(0.958952 0.102806 0)
(-0.120217 1.84716 0)
(-0.0307869 1.64085 5.95105e-20)
(-0.0497259 1.64781 3.68866e-20)
(0.0206252 1.76074 0)
(0.175682 1.76136 1.25957e-19)
(0.112895 1.76344 -1.89487e-20)
(0.0291761 1.73615 0)
(0.393628 1.63291 0)
(0.333101 1.56187 -5.28863e-19)
(0.349278 1.54731 0)
(0.454885 1.78804 5.44774e-19)
(0.538888 1.76797 0)
(0.53489 1.77803 -1.92201e-19)
(0.572217 1.51688 -2.6807e-20)
(0.583969 1.41972 -1.47194e-18)
(0.597339 1.41913 1.86152e-18)
(0.471095 1.41437 3.46551e-19)
(0.469803 1.46158 0)
(0.571016 1.50553 0)
(0.645065 1.44872 0)
(0.497779 1.39291 -1.2997e-18)
(0.362454 1.48398 -7.96991e-19)
(0.350187 1.46943 -1.73705e-19)
(0.449056 1.47753 1.46482e-19)
(0.351447 1.45588 0)
(0.472284 1.45759 0)
(0.438902 1.42329 -3.34501e-19)
(0.39769 1.44965 0)
(0.451352 1.50844 0)
(0.560152 1.39369 -9.4263e-19)
(0.474781 1.25698 -6.80882e-20)
(0.741914 1.52826 0)
(0.671599 1.5814 1.51721e-18)
(0.718959 1.35595 -2.77979e-19)
(0.966023 1.1795 0)
(0.81439 1.10766 4.96142e-19)
(0.365029 1.53945 0)
(0.430473 1.27515 0)
(0.753831 1.5 -5.98521e-19)
(0.726242 1.55778 -3.91604e-19)
(0.72093 1.54352 7.18195e-19)
(0.725067 1.565 -2.19617e-19)
(0.729316 1.4602 0)
(0.691729 1.49214 2.93263e-19)
(0.774524 1.50858 -5.06351e-19)
(0.769536 1.45746 -1.91081e-20)
(0.563119 1.51665 0)
(0.528597 1.5989 -3.30687e-19)
(0.632362 1.54004 0)
(0.821399 0.202177 0)
(0.821174 0.185474 0)
(0.72162 0.206741 0)
(0.796447 0.269409 -1.09391e-18)
(0.757184 0.203033 6.05712e-19)
(0.990701 -0.0394288 -7.54074e-19)
(0.905447 0.00473261 0)
(0.894625 -0.00948968 3.31978e-19)
(0.823991 0.126217 1.33129e-18)
(0.825848 0.0372894 -8.53314e-19)
(0.803308 2.32947 -1.60984e-19)
(0.83892 2.13268 0)
(0.784742 2.4181 -2.85697e-19)
(0.139522 2.5151 2.51567e-19)
(0.315107 2.09897 -3.92496e-19)
(0.134355 1.53409 1.14243e-18)
(0.228042 1.55616 0)
(-0.0487808 0.808408 -1.88638e-19)
(-0.0294464 1.01908 1.45319e-18)
(-0.20605 0.480123 -2.11182e-19)
(0.127037 0.484772 2.71925e-19)
(0.361494 0.526312 7.10593e-19)
(0.567509 0.538857 0)
(0.216508 0.782663 0)
(0.147671 0.722947 0)
(0.832027 0.726553 3.74786e-19)
(0.742054 0.542666 -1.02363e-18)
(0.882724 0.629866 8.37327e-19)
(0.817447 0.476338 -7.56742e-19)
(1.05832 0.607185 0)
(0.991501 0.663469 -2.44689e-19)
(0.774618 0.32034 -1.42919e-18)
(0.734928 0.283876 -1.78007e-18)
(0.609658 0.466332 1.12769e-18)
(0.633473 0.417968 -1.08251e-18)
(0.762164 0.333965 -8.34848e-19)
(0.705542 0.324905 1.05783e-18)
(1.08645 -0.0104028 -1.00939e-18)
(1.08674 0.0195852 2.09077e-18)
(1.06933 0.0745181 1.27529e-18)
(1.04314 -0.0574527 -1.53771e-18)
(0.821121 0.0584259 0)
(0.775467 -0.0483491 -2.74383e-18)
(0.134583 1.68054 6.58796e-20)
(-0.023256 1.74823 0)
(0.133865 1.76831 4.51756e-19)
(0.0147433 1.72874 -4.04741e-19)
(0.0364145 1.70282 1.72186e-19)
(0.0690763 1.77238 0)
(0.099172 1.87561 0)
(0.0439442 1.72246 -5.42372e-20)
(0.00429483 1.55407 4.84072e-20)
(0.0947583 1.60539 -1.19527e-21)
(-0.209056 1.82807 -1.05956e-19)
(-0.0200845 1.68929 7.96112e-20)
(0.524749 1.58949 -9.70198e-19)
(0.60001 1.62484 1.03857e-18)
(0.483713 1.69499 -3.55674e-19)
(0.66219 1.62815 4.42516e-20)
(0.603058 1.67545 0)
(0.589265 1.77294 -1.59947e-19)
(0.532726 1.76284 1.61642e-19)
(0.538005 1.70277 3.36046e-19)
(0.605848 1.72112 0)
(0.647638 1.61111 0)
(0.609408 1.43479 1.18259e-18)
(0.237753 1.52199 1.59407e-18)
(0.267096 1.51534 -1.07068e-18)
(0.195662 1.52527 -1.90286e-19)
(0.461243 1.43704 3.96621e-19)
(0.284852 1.41622 -9.40746e-19)
(0.620087 1.45496 -1.03128e-18)
(0.729873 1.46149 0)
(0.633813 1.42356 -1.15392e-18)
(0.682316 1.47205 0)
(0.688873 1.50658 0)
(0.546549 1.84331 -5.96669e-19)
(0.483592 1.96336 -3.79588e-19)
(0.389303 2.01973 5.37736e-19)
(-0.60933 1.53766 0)
(-0.289542 1.47496 -5.9428e-19)
(0.00364426 1.55794 -7.18292e-19)
(0.417052 1.72865 0)
(0.0647761 2.22705 2.77602e-19)
(-0.381073 2.24312 0)
(0.481953 0.897091 -1.58045e-18)
(0.639827 0.920402 2.12501e-18)
(0.671174 0.768186 -2.023e-18)
(0.31553 0.736242 -1.91383e-19)
(0.442023 0.718351 -7.47348e-19)
(0.547579 1.81564 2.82796e-19)
(0.626783 1.7037 -7.52632e-19)
(0.546897 1.86327 9.28677e-19)
(0.535623 1.74318 -5.7726e-19)
(0.587668 1.55739 -1.02715e-18)
(0.61868 1.70575 -8.18653e-20)
(0.681097 1.65065 8.04829e-19)
(0.531939 1.70182 5.60601e-20)
(0.520733 1.55456 4.64483e-19)
)
;

boundaryField
{
    wall-4
    {
        type            noSlip;
    }
    velocity-inlet-5
    {
        type            fixedValue;
        value           uniform (1 0 0);
    }
    velocity-inlet-6
    {
        type            fixedValue;
        value           uniform (0 3 0);
    }
    pressure-outlet-7
    {
        type            zeroGradient;
    }
    wall-8
    {
        type            noSlip;
    }
    frontAndBackPlanes
    {
        type            empty;
    }
}


// ************************************************************************* //
