/*--------------------------------*- C++ -*----------------------------------*\
  =========                 |
  \\      /  F ield         | OpenFOAM: The Open Source CFD Toolbox
   \\    /   O peration     | Website:  https://openfoam.org
    \\  /    A nd           | Version:  6
     \\/     M anipulation  |
\*---------------------------------------------------------------------------*/
FoamFile
{
    version     2.0;
    format      ascii;
    class       volScalarField;
    location    "2";
    object      p;
}
// * * * * * * * * * * * * * * * * * * * * * * * * * * * * * * * * * * * * * //

dimensions      [0 2 -2 0 0 0 0];

internalField   nonuniform List<scalar> 
918
(
0.775878
0.434073
-0.00134855
0.741943
-0.0126118
0.37217
-0.651872
0.522351
0.768466
-0.108735
0.012524
0.627216
0.256876
-0.00826761
-1.14656
0.0346548
0.702877
-0.834642
0.581739
0.0127535
0.201993
0.81313
0.743553
0.600158
0.660267
0.0181129
0.00908502
-0.0338852
-0.00834917
-0.0257028
0.00200807
0.0201674
0.0321343
0.250841
0.307554
0.32769
0.614568
0.351639
-0.48529
-0.493499
-0.549853
-0.837747
0.560272
0.588153
-0.0798231
0.477265
0.433752
0.614287
0.759964
0.768333
0.758589
0.782899
0.788801
0.318617
-0.155116
-0.198026
-0.0740703
-0.0712069
0.137185
-0.00417029
-0.0197575
0.0231337
-0.00504134
0.577722
0.621246
0.61349
0.636471
0.625819
0.378601
0.295981
0.343374
0.347203
0.349774
0.272808
0.213895
0.0119212
0.0305252
-0.0371656
-0.0478123
-1.32765
-1.82682
-0.824437
-0.684023
0.0166199
0.0177724
0.0449502
0.702288
0.707481
0.684461
0.691023
0.668001
-0.697979
-0.943906
0.663178
0.643854
0.767256
0.728101
0.623934
0.600637
-0.0100013
-0.00840123
0.00369202
0.0275733
-0.00827096
0.14681
0.20838
0.525584
0.583945
0.616929
0.632691
0.622458
0.391333
0.670037
0.673225
-0.101475
-0.0528417
0.0162892
-0.00803453
0.0704056
0.0587356
0.188161
0.254945
-0.00239842
0.0116317
0.0364859
0.0113363
0.00937989
0.60938
0.59791
0.633552
0.613392
0.630276
0.251662
0.0826322
0.428867
0.553542
-0.297611
-0.308738
-0.778335
-0.717656
-0.974784
0.792332
0.604693
0.634225
-0.116106
-0.0538655
-0.17037
0.0411925
-0.0110346
0.646426
0.616109
0.627275
0.6051
0.614003
0.617142
0.779077
0.777997
0.773461
0.293869
0.360468
0.309882
0.238566
-0.452531
-0.254151
-0.448675
-0.0349904
-0.0318261
0.108255
0.130821
0.154411
0.0916126
-0.0242717
-0.00236905
0.0139526
-0.0140723
-0.0126823
0.586553
0.559285
0.565379
0.57502
0.624229
0.615319
0.611951
0.619635
0.19006
0.179901
0.140564
0.152023
-2.31471
-3.93243
-0.523996
-0.448336
0.0206154
0.00958257
0.00374498
-0.0369567
0.00342471
-0.01374
0.0604104
0.0699852
0.0316641
0.0464781
0.696386
0.70697
0.673908
0.721687
0.593313
0.609221
0.633321
0.643094
0.644192
0.645616
-0.0071772
-0.0251326
-0.0190812
0.378657
0.248582
0.310992
0.367341
0.274311
0.429925
0.475286
0.693494
0.692042
0.707298
-0.0676324
-0.0562651
0.205686
0.286699
0.220322
0.199536
0.230337
0.236682
0.292022
0.573889
0.598709
0.590146
0.629066
0.628088
0.63195
0.634973
0.621676
0.624896
-0.0377015
-0.275889
0.732659
0.678857
0.603897
0.661303
0.761701
0.779836
0.677597
0.640762
0.664509
0.109807
0.093683
0.212645
0.187557
0.52202
0.532622
0.525921
0.114996
0.0320795
0.0704722
0.0625766
0.0113273
0.0780959
-0.235018
-1.29577
-0.7066
-0.21915
-0.359139
-0.265583
0.0589054
0.109996
0.0940951
0.683405
0.726835
0.395554
0.522697
0.494694
-0.0245031
-0.0566873
0.07254
0.00500576
-0.00200669
0.0272243
-0.0526569
0.751815
0.737436
0.776996
0.748524
0.773663
0.222816
0.192032
0.147718
0.16069
0.159993
0.166665
0.715837
0.744246
0.769804
0.539367
0.60359
-0.000201924
0.00612321
0.715157
0.702978
-0.0425464
0.0049038
-0.347044
-0.912149
0.292273
0.647063
0.608101
0.672603
-0.116876
0.222347
-0.0148517
0.105502
0.0667907
0.606096
0.54031
0.530078
-0.0158161
0.0125662
-0.0395756
-0.305034
0.645249
0.62449
0.659082
0.669321
0.711395
-0.00630249
0.00203643
0.0319946
-0.0519296
0.001585
0.0227766
0.623812
0.609001
-0.201502
0.638688
0.665112
0.696678
0.664095
0.681683
0.689109
-0.0157663
0.03957
0.0420115
0.304464
0.444299
-0.162094
0.0462125
-0.36244
-0.410651
-0.493054
-0.235223
-0.143019
-0.240033
-0.0175032
0.59133
0.48074
0.361863
0.168388
0.321453
0.273625
0.630714
0.65023
0.619109
0.651873
0.656081
0.623577
0.66324
0.639917
0.648544
0.675204
-0.0405116
-0.0644228
-0.0794998
-0.155601
0.289423
0.373444
0.183456
0.283791
0.158499
-0.0336
0.0207163
-0.022364
-0.0119022
0.0432375
0.129867
0.0236538
0.163792
0.0408371
0.112811
-0.00652929
0.0807833
-0.0185424
0.586354
0.598509
0.597202
0.637345
0.582565
0.586841
0.575763
0.560103
0.603086
0.53025
0.521209
0.545417
0.0161569
0.0116505
0.0230902
0.0546838
0.0399251
-0.0451604
-0.0512047
-0.0805579
-0.0452186
-0.0424974
-0.0299654
-0.0165962
-0.210606
-0.373542
0.617119
0.523204
0.274801
0.628187
0.649925
0.625515
0.64522
0.683911
0.724575
0.691557
0.634863
0.620761
0.634254
0.601896
0.628428
-0.117017
-0.223613
0.00716057
-0.101775
0.341635
0.668496
0.459301
0.452218
0.442189
0.546284
-0.708258
-0.529143
0.0668933
0.0814842
-0.67133
-0.556428
-0.691208
-0.489681
-0.279433
-0.108184
-0.0547323
-0.0359079
-0.0244524
-0.131607
-0.00398276
0.685321
0.0609619
0.0858346
0.364967
0.24629
0.0346294
0.622667
0.639334
0.438627
0.38663
0.557888
0.529001
0.541323
0.530695
0.556099
0.566761
0.346284
0.411313
0.345346
0.656962
0.585467
0.593147
0.536999
0.666675
0.659522
0.651014
0.64869
0.660917
0.634521
0.629441
0.61741
0.596515
0.637727
0.626513
0.612563
-0.048251
-0.0197025
-0.129986
-0.214287
-0.117835
-0.206367
-0.0924814
0.092623
-0.0350138
0.199259
0.333169
0.133041
-0.155705
0.0097591
-0.0200157
0.188178
0.13035
0.103215
0.177041
0.160889
0.117448
0.246829
0.224257
0.0556059
0.0746198
0.0219008
-0.00944609
0.151823
0.112175
0.159663
0.0779097
0.0759781
0.0266691
0.00223149
0.0583222
0.0957556
0.0972504
0.0373917
0.0201381
0.0200979
-0.0431214
-0.00545764
0.144571
0.0447086
0.626785
0.619512
0.618015
0.613548
0.638716
0.638527
0.570851
0.609395
0.623155
0.604094
0.573457
0.559371
0.552368
0.582751
0.58891
0.584909
0.6352
0.621872
0.593076
0.608203
0.553274
0.575186
0.51879
0.537317
0.573945
-0.0269382
-0.0293251
-0.0450079
-0.045896
0.00765379
0.0294129
0.0912068
0.0367429
0.113271
0.0690988
0.0822922
-0.0414767
-0.0027275
-0.0180488
0.0799117
-0.182466
-0.207606
-0.326254
0.613916
0.661639
0.543971
0.458709
0.523231
0.556394
0.594699
0.404826
0.428314
0.46601
0.701204
0.700736
0.593696
0.596735
0.649195
0.638813
0.624478
0.0329557
0.212241
0.264159
0.385059
0.448077
0.462088
0.419609
0.421063
0.519617
0.503727
0.650881
0.670232
0.649267
0.678724
0.695411
0.487821
0.5995
0.639894
0.617902
0.59633
0.605365
0.616838
0.591531
0.562803
0.581595
0.58078
0.519171
0.559419
0.54495
0.560462
0.59208
0.579507
0.58709
0.581699
0.637878
0.595065
0.61454
0.658954
0.634514
0.541769
0.523504
0.543275
0.548625
0.557283
0.545184
0.541828
0.467135
0.584263
0.443196
0.142363
0.250151
0.0594404
0.0497622
0.15628
0.337221
-0.0640341
-0.125246
-0.516137
0.731405
-0.837314
-0.282709
-0.596534
0.339076
0.355443
0.267587
0.161223
0.252853
0.629204
0.651758
0.657447
0.53226
0.510544
0.439664
0.472217
0.688001
0.614371
0.620535
0.578719
0.422388
0.485222
0.553883
0.520007
0.454244
0.478945
0.508677
0.419242
0.426068
0.536405
0.534267
0.539661
0.593393
0.623707
0.631094
0.605528
0.522102
0.574261
0.547707
0.579448
0.604194
0.586364
0.640719
0.615215
0.60699
0.608674
0.621254
0.632213
0.602852
0.647664
0.657553
0.679978
0.657633
-0.00714885
0.0138321
0.0164537
-0.022815
0.0663443
0.0291582
-0.0983331
-0.130312
0.0794781
0.0400414
-0.0041334
-0.0297524
0.052058
0.0585096
0.110953
0.161766
0.182886
0.106254
0.251514
0.353295
0.37957
0.334529
0.22425
0.225293
0.288117
0.0566656
0.099254
0.0745887
0.0712552
0.0648899
-0.0400552
-0.000898127
-0.00913788
0.0714397
0.036941
-0.0808836
0.00864782
0.0137176
-0.0616703
-0.0289732
-0.00355686
0.599322
0.572389
0.527852
0.498964
0.543294
0.536057
0.607963
0.614502
0.636204
0.631951
0.628477
0.614559
0.632605
-0.0312669
0.029466
0.0314785
0.0405238
0.0122807
-0.0441728
-0.0180796
0.349554
0.176892
0.247303
0.122616
-0.0613363
-0.00870925
0.576694
0.679292
0.70924
0.680264
0.607781
0.6088
0.670159
0.707555
0.478284
0.563702
0.490777
0.6433
0.655114
0.686196
0.581185
0.411497
0.624216
0.747574
0.418823
0.432821
0.528999
0.397156
0.43015
0.455838
0.637987
0.4628
0.458515
0.508893
0.451239
0.509618
0.541851
0.535318
0.603779
0.372019
0.372161
0.266435
0.623807
0.652447
0.680691
0.648679
0.667557
0.633775
0.635041
0.651483
0.683245
0.669473
-0.271949
-0.025243
-0.908665
-0.740687
-0.236087
0.666964
0.625623
0.338608
0.559403
0.0596711
0.269684
0.47501
0.512088
0.546987
0.456292
0.511756
0.571696
0.562122
0.517613
0.442507
0.382642
0.622833
0.634466
0.604743
0.622276
0.62381
0.629366
0.570274
0.61322
0.578834
0.623607
0.640044
0.64967
0.135344
0.0866371
0.109596
0.101079
0.0728531
0.098492
-0.0738494
-0.0909951
0.0454939
0.0567625
0.0444575
0.0976616
0.378202
0.364675
0.180016
0.288693
0.108681
0.00511848
-0.0288149
0.105248
0.239779
0.247827
0.487842
0.586056
0.527256
0.550379
0.482665
0.551445
0.664348
0.610087
0.658474
0.591306
0.584862
0.388805
0.0894154
0.0368045
-0.224445
0.334613
0.559834
0.484736
0.081691
-0.0847112
0.630278
0.597193
0.551288
0.575829
0.543958
0.229999
0.293737
0.597093
0.787096
0.579211
0.490403
0.492791
0.598593
0.529173
)
;

boundaryField
{
    wall-4
    {
        type            zeroGradient;
    }
    velocity-inlet-5
    {
        type            zeroGradient;
    }
    velocity-inlet-6
    {
        type            zeroGradient;
    }
    pressure-outlet-7
    {
        type            fixedValue;
        value           uniform 0;
    }
    wall-8
    {
        type            zeroGradient;
    }
    frontAndBackPlanes
    {
        type            empty;
    }
}


// ************************************************************************* //
