/*--------------------------------*- C++ -*----------------------------------*\
  =========                 |
  \\      /  F ield         | OpenFOAM: The Open Source CFD Toolbox
   \\    /   O peration     | Website:  https://openfoam.org
    \\  /    A nd           | Version:  6
     \\/     M anipulation  |
\*---------------------------------------------------------------------------*/
FoamFile
{
    version     2.0;
    format      ascii;
    class       surfaceScalarField;
    location    "2";
    object      phi;
}
// * * * * * * * * * * * * * * * * * * * * * * * * * * * * * * * * * * * * * //

dimensions      [0 3 -1 0 0 0 0];

internalField   nonuniform List<scalar> 
1300
(
3.75095
5.62643
-6.82355
3.75095
-6.27018
5.62643
-6.25337
6.25337
-1.591
1.591
1.87225
1.8787
-5.79248
5.79248
-5.62401
5.62401
-3.02977
3.02977
-5.25853
5.25853
-5.15266
5.15266
4.14326
-4.14326
-5.2984
5.2984
-2.19909
2.19909
-6.36245
6.36245
3.21564
-3.21564
-5.61162
5.61162
-1.43974
1.43974
-0.440487
4.19144
3.31047
3.31047
-2.77236
2.77236
-5.03789
5.03789
6.16645
-6.16645
9.86734
-9.86734
-3.04379
-3.28214
1.22053
-8.04744
-5.04965
-5.04965
-8.43643
8.43643
-2.81
2.81643
3.20208
-3.20208
-2.21949
2.21949
-5.95833
-0.295042
-5.95833
6.48942
-0.236055
6.48942
-1.7266
0.135605
-1.7266
4.76152
-4.76152
1.4162
0.174795
1.4162
3.23336
-3.23336
-1.89699
3.76925
1.85396
-1.96309
6.15453
-1.78786
3.66656
-4.85823
4.85823
-5.94344
0.150968
-5.94344
5.76757
0.0249084
5.76757
-5.50666
5.50666
-5.6466
0.0225951
-5.6466
5.60732
0.0166895
5.60732
3.23994
-3.23994
-3.10774
0.0779715
-3.10774
3.07501
-0.0452387
3.07501
0.383997
5.24243
-6.01043
8.82686
-5.24243
-0.0160935
5.30468
-0.0461551
5.30468
-5.20817
0.0555115
-5.20817
5.10674
0.045922
5.10674
3.93784
0.205426
3.93784
-4.47817
0.334911
-4.47817
-3.20357
-3.37201
-5.37064
0.0722337
-5.37064
-2.24284
0.0437455
-2.24284
2.09417
0.104928
2.09417
-3.90101
3.90101
-6.57778
0.21533
-6.57778
3.13227
0.0833738
3.13227
2.00083
1.75013
5.75178
-5.75178
2.53614
-5.64753
0.0359035
-5.64753
-5.62112
-4.24623
5.62112
-0.00949154
-1.26822
-0.171524
-1.26822
3.26903
0.0414384
3.26903
2.9773
0.0977061
-2.9773
0.20494
3.70164
-3.70164
2.22172
0.550644
2.22172
-5.51362
5.51362
5.09568
0.0110549
-5.09568
0.0577915
6.0642
0.102255
6.0642
-6.17721
0.0107604
-6.17721
3.31275
-6.59489
-3.28023
5.20677
0.0916308
-5.20677
0.157125
3.24173
-0.0396583
3.24173
-3.17227
3.17227
-3.19581
-0.00626736
-3.19581
-1.97415
-0.245346
-1.97415
2.46661
-0.24712
2.46661
-5.48285
-0.475479
-5.48285
-6.63114
0.0533533
6.63114
-0.141712
3.0075
-3.0075
-1.87111
0.144508
-1.87111
-5.01197
-0.470875
5.01197
-0.250449
-4.43705
-0.324471
-4.43705
-3.1871
-0.00871367
3.1871
0.0462635
3.18569
0.0833379
-3.18569
-0.0476682
-1.87898
3.62911
-1.87197
3.72593
-4.829
-0.0292298
-4.829
5.09323
-0.234999
5.09323
6.18585
0.176599
-6.18585
0.242409
5.76309
0.00448081
5.76309
-5.48846
-0.0182028
-5.48846
5.5876
-0.0809406
5.5876
5.63661
0.126471
-5.63661
-0.00999004
5.62557
-0.0182461
5.62557
3.3587
-0.118761
3.3587
-3.2745
0.0345536
-3.2745
3.17749
-3.17749
3.1027
0.074799
-3.1027
-0.00504272
-11.0001
11.0108
0.0237471
-11.0238
5.32843
5.32843
3.19336
0.74448
3.19336
-4.86658
0.388404
-4.86658
3.2554
-6.53563
3.25315
-6.45672
3.30005
-11.3475
3.28961
-6.66162
5.48163
-5.48163
5.47112
0.0105074
-5.47112
0.100489
-2.21339
-0.0294457
-2.21339
-3.68759
-0.213421
-3.68759
4.24734
-0.346331
4.24734
-3.22241
3.22241
-3.14944
-0.0729631
3.14944
-0.0171756
5.70997
-0.0844019
-5.70997
0.0624398
1.31172
0.10448
-1.31172
0.0435015
3.90117
-0.199524
3.90117
-3.53238
-0.169267
-3.53238
-2.21724
0.00384658
2.21724
0.00447442
-5.72458
0.210963
-5.72458
-11.1233
0.0994692
-11.1695
-6.07774
-6.07774
2.35868
11.1855
-3.23864
-0.0358577
3.23864
0.00309582
3.16347
0.058933
-3.16347
-0.00879702
-3.14902
-0.0284704
3.14902
0.0232458
-1.98399
0.00984191
-1.98399
-2.81599
2.81599
-2.64977
-0.166223
2.64977
-0.183157
3.15615
-0.148655
3.15615
2.05089
0.0432782
-2.05089
0.17978
-4.1591
-0.277953
-4.1591
5.29341
-0.200181
5.29341
-3.38372
-0.148659
3.38372
-0.0250145
-0.0312607
11.0421
-5.29717
0.0889962
5.29717
-11.1444
11.2334
-2.40555
0.421558
2.40555
0.787808
5.22895
0.284671
-5.22895
0.362369
5.52775
0.0598524
-5.52775
0.0461155
-3.6272
-0.0603896
-3.6272
-4.56685
-0.262152
4.56685
-0.319504
-11.5133
-0.161073
11.6744
-11.4674
5.88565
0.178544
-5.88565
11.4119
-2.93699
-0.0705071
2.93699
-0.120996
3.31967
-0.163519
3.31967
4.04627
-0.145105
-4.04627
-0.112827
-5.33664
-0.151813
5.33664
-0.0432353
-3.45853
-0.168671
3.45853
-0.13886
-4.16201
4.20345
1.99252
-3.30813
-3.28677
-7.55435
1.60778
2.02133
4.14392
-7.07417
-4.27332
-6.91704
7.10908
-6.74672
-7.94653
8.15196
7.47675
-7.80122
-5.88704
5.86986
6.33971
-6.29345
1.85224
1.91701
10.8589
-10.7079
-9.96817
9.93894
10.1328
-10.1102
10.4576
-10.4758
-12.163
12.2228
-5.6285
5.70647
-6.57048
6.60503
-6.65987
6.63485
-3.30938
-3.14734
8.91454
-8.8423
11.6655
-11.6296
-11.2411
11.4564
3.27491
0.928545
3.35825
-1.80654
3.65878
-1.86002
3.85254
3.25231
-6.5617
3.28332
-6.57008
6.01059
5.65488
-6.0011
-1.55325
-5.87929
5.83963
-5.80329
5.82654
10.7093
-11.0043
-1.87686
3.79387
-1.84907
3.8704
-3.42634
-2.4607
3.34297
0.800951
5.524
3.39053
-5.61564
-1.30141
-7.61895
7.47385
-7.70857
7.5393
-0.400313
5.89248
-5.49217
4.63758
-1.82247
7.71494
5.28662
5.67502
5.79576
-5.51109
0.950954
-6.44312
-6.38533
-2.46043
2.60494
2.40653
-2.23173
6.35914
1.11761
6.10869
-5.35904
-2.44218
-5.637
3.89501
1.97486
3.82204
4.09578
2.24393
4.08707
2.99642
-2.99498
-0.00144627
-3.00954
6.00597
0.79889
-5.47024
-4.66929
7.02517
3.83369
7.05008
-7.35417
-3.35373
-7.11176
-6.04696
-3.92121
-6.30911
6.61238
3.32656
6.37738
-7.67789
7.63466
6.74737
3.38538
6.76406
-6.75209
-3.35807
-6.76208
10.1647
-2.76075
-7.40396
-6.8343
-5.32868
6.91524
3.54237
7.43643
4.7864
7.48255
3.56942
6.59529
-7.11179
1.78311
-3.75677
-1.87173
-3.76181
3.64507
2.06141
3.59983
-4.214
-2.35648
-4.24986
-4.17771
-2.48216
4.29647
2.30856
-4.25218
-3.45638
4.40084
2.23401
3.11915
-7.39247
3.54247
-6.68981
-6.30431
-2.538
-6.20382
3.97646
2.59076
-6.56722
-2.58524
10.7086
-5.05369
9.15532
-7.258
-4.37157
-7.19556
-8.8846
-2.35652
-8.83124
-5.17921
5.11882
-5.56486
5.21852
10.5102
-5.92837
-4.58186
-3.92828
-2.36517
3.97595
-0.617701
-3.69412
3.69267
-0.0353412
3.8172
4.74574
4.12804
-3.82591
-1.97738
-3.83471
3.84421
1.98233
3.81574
8.56262
2.14666
8.32657
-7.35707
-3.64725
-7.83254
5.77224
-6.01758
3.03306
-3.02921
5.13074
2.40856
-4.93122
-2.68773
5.85714
-3.03581
-2.82133
-13.2641
9.8538
3.41031
-5.54917
-0.911586
0.528156
-5.04387
-2.90266
4.70896
0.966062
10.8199
7.9172
-5.51498
5.72594
6.15942
6.17048
-0.214853
4.087
-3.66544
4.63811
-0.674429
-3.96368
5.81377
-6.28464
-2.01878
-5.63539
3.61661
-0.175947
1.40841
-1.57993
-2.02366
-0.436766
-1.84388
1.48052
0.926009
1.585
0.946688
1.65825
-2.61005
0.43788
2.17217
-1.66336
-1.79385
-3.62893
-0.479161
4.10809
5.61144
1.8624
-5.49862
-0.138378
2.77493
-2.67
-1.16506
-2.46387
1.5104
-2.67546
-3.1349
-2.00095
5.13585
-3.34481
-0.489892
3.28588
0.536163
-3.75577
-2.12352
3.76204
0.325033
-2.89025
6.00267
-3.11242
-4.86763
2.50702
3.49895
4.48187
-4.67536
2.31574
2.35962
-1.17641
6.0273
1.02278
6.03178
-8.97478
5.62106
7.69316
3.76328
-7.86976
0.758001
-8.21678
9.44081
-8.27706
-1.16375
4.64071
4.8001
5.38543
5.12481
-3.49466
8.88009
-1.11387
-7.16319
9.33065
-5.56737
5.65632
-11.2237
-10.7811
3.61794
-6.8099
8.38472
-1.57482
-2.24514
-5.43275
9.05504
-0.744443
-8.31059
5.63293
-5.19519
-5.43241
10.6276
-7.95594
8.79048
-2.52293
-6.26755
-6.48886
-3.98696
6.64067
0.993986
-9.58447
11.3676
-2.98918
5.79493
0.969132
5.77669
3.94713
-5.95935
2.01221
4.0088
-6.53174
2.34048
-8.29983
-4.83382
9.4024
-4.56858
-7.37181
-6.48617
-0.885642
1.82867
9.53891
-6.61507
5.19693
1.41814
3.26638
0.549364
-3.34117
-0.420636
0.280847
4.42514
-4.70599
3.88068
3.97838
3.53214
0.893009
3.8174
2.02222
-3.8205
-0.429357
-3.83447
1.35231
-1.52591
-3.41221
4.76452
-3.8383
0.426096
-2.66427
-3.39793
6.0622
-4.536
2.88551
3.11716
4.86784
-4.77377
1.37584
-2.37457
-2.3992
2.46246
-3.98837
1.88125
2.88327
4.11526
0.658877
4.74445
4.65795
-7.33521
0.645403
8.04848
-6.74707
1.52968
5.95287
-6.72661
0.240441
-5.96338
1.17177
-6.22546
-5.39545
6.39216
-8.74867
-4.83153
8.01625
0.310315
-7.87454
-0.956705
-3.73013
-1.44908
-3.8988
-1.80858
-3.75628
-5.30324
-1.14912
-4.15412
3.9697
-4.18931
-2.1198
4.50882
0.709709
-4.53659
4.46609
-4.60482
4.4413
0.168922
3.52375
4.29696
1.9318
-2.34734
4.27914
-6.82749
8.97415
-10.5527
3.7252
4.13169
-7.77895
-6.42099
3.60723
2.165
3.36011
5.83875
-7.22365
1.38491
-6.46129
7.19543
-0.734134
-9.9742
3.51291
-4.13546
2.74911
0.283943
2.71967
0.74448
2.20555
-2.95003
-2.28473
-2.28026
-2.21672
-3.10589
5.32261
0.972202
-3.21111
2.23891
-3.12333
4.09553
-0.227844
-2.98327
4.93518
-2.72963
5.21912
-3.35117
1.86795
3.12751
5.19999
-2.07247
4.08168
-1.67312
1.71195
-3.78442
-1.39394
-2.86018
4.92158
-3.20202
3.62811
-0.215593
3.84371
-4.04118
1.00537
-0.509049
3.46933
3.67427
3.93963
-3.04662
2.66611
-4.33923
-1.11831
-3.68035
-0.797081
-1.14218
-5.02314
6.16532
4.84998
-5.99216
-3.23179
5.99098
-2.75919
5.15253
-3.78592
-1.36661
-2.93
-3.08759
2.92016
1.16684
6.31938
0.125995
-3.91191
-3.53945
-2.75164
4.20289
0.435225
-2.35662
5.76693
1.82846
-0.420054
0.409718
1.17528
1.45298
-1.04327
0.361151
1.09183
-1.21878
1.98275
0.792172
-2.02603
0.182151
-1.46052
2.97092
0.711643
-1.63765
0.594386
2.13217
-2.8066
4.4132
-1.46225
-2.95095
6.54536
1.75959
-3.22184
3.8758
-4.05175
2.49133
-2.97049
-0.73051
-4.78226
-3.66465
-2.26005
4.49896
-3.06255
4.92496
1.36406
-4.78658
6.15064
-3.38283
1.38189
-2.67406
3.46623
-0.712697
-1.96136
2.52105
2.6148
-2.77574
0.311872
-0.254689
2.0146
-2.26929
-0.660856
-2.32421
-4.37089
4.69593
-2.15217
4.46791
2.12697
-2.02013
6.48804
1.76023
-3.78036
-3.10741
-3.5973
-1.42074
3.06113
-0.776095
-5.98598
-7.04364
5.85951
0.172269
-8.91333
10.0399
-1.12652
-5.07964
-0.541411
5.18212
-7.2407
0.708967
-4.90022
5.13963
6.16241
6.33468
-8.23082
-0.0797727
-4.90426
1.09872
-6.00298
5.89882
-2.76745
6.38539
-6.82235
4.70255
-6.11264
5.22164
-0.781339
5.334
-3.32179
2.06996
-6.05692
-5.06293
6.96044
-3.57506
7.92957
-4.06336
11.9929
-7.05254
7.01029
4.98264
-1.33588
-5.85968
-6.84289
5.50701
0.167398
5.94408
4.76214
-2.73991
4.33278
2.01208
-4.38664
-1.9763
-6.32528
1.93864
-3.20812
-1.76865
3.70729
3.09919
3.64855
1.30809
-3.22792
6.59485
-7.48049
-2.02626
-3.36918
6.82458
-1.31757
3.77245
-7.14163
-2.45301
5.28039
-0.639531
-4.64086
0.647986
-5.47952
2.57086
-8.05037
6.17782
-7.13452
1.25462
-5.39008
-3.28197
-3.40297
-1.38898
-3.21584
-4.6145
3.22552
-1.10159
3.36449
-5.19439
4.55486
-2.00104
5.22656
-3.40443
-0.494373
3.54329
0.898011
6.12457
-0.662984
-5.75801
-0.827906
5.38393
-4.55603
3.37498
-5.68613
-0.302193
3.22457
3.3208
-6.84118
-0.937771
-6.69578
-2.63808
4.80309
3.35289
8.20288
0.979227
5.16761
-0.364519
6.14683
2.9956
2.81244
-3.83464
5.21954
2.33068
6.05588
-0.862224
2.73017
1.85744
1.90119
0.768809
2.20762
1.46665
3.21299
0.262957
-2.0173
3.6835
-6.43514
-0.228417
-5.69066
2.4613
4.66262
-2.20131
4.53882
-4.1036
-0.0172055
2.10609
-0.730034
-1.37606
-1.85759
-1.15009
-0.0582557
-1.34757
1.94196
1.62335
-1.8837
0.0261125
0.0343506
-3.699
2.93614
-2.62427
-0.00946332
6.14118
-2.39349
0.124203
-1.01161
-2.20001
-2.63678
2.45463
6.09615
0.391889
2.98373
5.08782
2.9643
0.224387
4.38813
-5.96295
-3.9117
-6.04272
-0.143898
5.03822
1.78692
7.75199
6.76957
5.45199
-1.68964
-9.17013
7.17469
-1.95515
6.44056
-1.7997
-6.25067
6.35925
2.6149
-6.66956
-0.464959
-6.71563
-8.67078
-0.482286
5.03715
-5.64229
5.14791
3.69883
0.455287
-2.82186
-0.581106
2.98808
-0.175644
5.97119
-1.65706
-6.00316
7.66022
-3.00556
2.77714
5.02077
0.74616
3.64471
-0.458885
-6.46204
-8.66336
-1.06092
-1.74568
-4.01187
0.0962157
-1.71956
4.18472
-1.40758
2.81811
6.25264
6.23543
-1.82263
-4.16953
4.58181
-1.76371
4.47173
)
;

boundaryField
{
    wall-4
    {
        type            calculated;
        value           uniform 0;
    }
    velocity-inlet-5
    {
        type            calculated;
        value           uniform -3.75095;
    }
    velocity-inlet-6
    {
        type            calculated;
        value           uniform -5.62643;
    }
    pressure-outlet-7
    {
        type            calculated;
        value           nonuniform List<scalar> 8(6.82355 6.27018 6.32593 6.82691 6.57558 6.59299 6.50855 6.58966);
    }
    wall-8
    {
        type            calculated;
        value           uniform 0;
    }
    frontAndBackPlanes
    {
        type            empty;
        value           nonuniform 0();
    }
}


// ************************************************************************* //
