/*--------------------------------*- C++ -*----------------------------------*\
  =========                 |
  \\      /  F ield         | OpenFOAM: The Open Source CFD Toolbox
   \\    /   O peration     | Website:  https://openfoam.org
    \\  /    A nd           | Version:  6
     \\/     M anipulation  |
\*---------------------------------------------------------------------------*/
FoamFile
{
    version     2.0;
    format      ascii;
    class       volVectorField;
    location    "2";
    object      U;
}
// * * * * * * * * * * * * * * * * * * * * * * * * * * * * * * * * * * * * * //

dimensions      [0 1 -1 0 0 0 0];

internalField   nonuniform List<vector> 
918
(
(0.92606 -0.0697403 0)
(0.00216585 2.96667 0)
(-0.200175 1.74601 0)
(0.857692 0.110979 0)
(-0.0456458 1.69254 -2.41102e-21)
(-0.0086483 2.94813 -7.53944e-19)
(1.21467 1.63699 5.93114e-19)
(0.534975 0.30201 -1.19644e-20)
(0.952595 -0.0135467 0)
(0.0434845 1.76728 0)
(0.0354237 1.71239 0)
(0.922232 0.0273965 0)
(0.00162101 2.94113 0)
(0.0219073 2.84875 0)
(-0.082905 2.83713 9.58525e-19)
(-0.0220628 1.69482 -2.42882e-20)
(0.708903 0.148897 1.08441e-18)
(0.272306 2.02671 6.18237e-19)
(0.988687 0.0958039 0)
(0.0479577 1.70923 0)
(0.708489 0.309981 -1.54173e-19)
(0.83019 -0.00428075 0)
(0.84842 0.00358227 0)
(1.0207 0.0647535 0)
(0.840307 0.0692602 0)
(0.0236519 2.77927 0)
(-0.0628731 2.91077 1.43385e-19)
(-0.0289046 1.75515 0)
(-0.0534753 1.70493 0)
(-0.105322 1.75383 0)
(0.0111448 1.77987 0)
(-0.0551074 1.69849 1.93413e-21)
(-0.0283854 1.67989 0)
(-0.0117936 2.98461 -2.14675e-23)
(-0.02077 3.00406 5.913e-19)
(0.000476421 2.99932 0)
(0.975573 -0.00152288 0)
(0.761386 0.96378 1.95017e-19)
(1.14919 1.64728 -6.7448e-19)
(1.29411 1.40619 6.2974e-19)
(0.983029 1.81747 -1.50039e-19)
(1.05457 1.82981 9.36032e-19)
(0.572485 0.310789 1.1675e-20)
(0.556827 0.291659 0)
(1.35132 0.787625 0)
(0.545458 0.336201 4.45567e-20)
(0.478612 0.326039 -4.62372e-20)
(0.981253 0.00180263 0)
(0.928117 0.00727809 0)
(0.955379 0.00831624 0)
(0.848118 -0.084587 0)
(0.909252 0.0352249 0)
(0.970309 0.0266684 0)
(-0.0544024 1.56665 -5.98485e-19)
(-0.000379308 1.82467 0)
(0.0152774 1.81471 0)
(0.0190225 1.77065 0)
(0.000598661 1.76093 0)
(-0.0541828 1.68749 0)
(0.0168896 1.75971 0)
(0.000946538 1.7256 0)
(0.0185859 1.74736 0)
(0.0162778 1.70815 0)
(0.974521 -0.0297783 0)
(0.964043 0.0287475 0)
(0.945256 -0.00157402 0)
(0.940165 0.000195126 0)
(0.938158 -0.00596401 0)
(0.0260116 2.99382 3.09176e-19)
(0.0188536 3.02204 0)
(0.015802 2.99914 0)
(0.0154307 2.97886 3.16209e-24)
(0.0103589 2.93653 -4.62334e-19)
(-0.0376827 3.0029 0)
(-0.0605785 2.97208 0)
(0.022497 2.97525 -2.41269e-26)
(0.0134458 2.88574 0)
(0.0118904 2.95469 0)
(0.0238771 2.82378 0)
(0.0990381 2.99938 0)
(-0.114396 3.04134 0)
(0.0166139 2.92096 -8.89496e-19)
(-0.0806307 2.82326 0)
(-0.0207498 1.7444 0)
(-0.00311901 1.74055 2.39645e-20)
(0.0283084 1.68299 -3.50212e-20)
(0.743025 0.178966 -3.8024e-19)
(0.733974 0.14771 -3.73914e-19)
(0.71554 0.230606 -1.11628e-18)
(0.662759 0.204073 -7.19976e-19)
(0.208168 1.35543 0)
(0.354581 2.08429 -6.44117e-19)
(0.489846 2.06592 1.10871e-18)
(0.964199 0.0311503 0)
(0.954823 -0.00636839 0)
(0.951558 -0.0241323 0)
(0.925095 -0.00291529 0)
(1.04705 0.126044 -3.09978e-18)
(1.06314 0.114868 2.3185e-18)
(0.0137809 1.76367 0)
(0.00112637 1.71626 0)
(0.00108252 1.74788 0)
(0.0298617 1.72511 0)
(-0.0085645 1.71717 0)
(0.545113 0.325028 5.37018e-20)
(0.493024 0.413259 0)
(1.0538 0.0210594 0)
(1.00188 0.00147119 0)
(0.945048 0.00733508 0)
(0.903426 0.0545104 0)
(0.909874 0.01787 0)
(1.12472 -0.0398691 0)
(0.844038 0.0618359 0)
(0.815729 0.0384099 1.67513e-18)
(0.0376348 2.82957 -2.01159e-19)
(0.0270676 2.95576 0)
(0.0590477 2.91689 0)
(0.0433648 2.78794 0)
(-0.0596693 2.96423 3.91307e-20)
(-0.0351774 2.83549 0)
(-0.0848838 2.94953 -3.80491e-19)
(-0.0886691 2.86611 2.18618e-19)
(0.0377269 1.74731 0)
(0.00241253 1.75189 0)
(-0.0254255 1.7208 -1.13272e-21)
(-0.0219949 1.73277 0)
(0.0137869 1.69469 0)
(1.00211 0.0104063 0)
(0.987919 -0.00952265 0)
(0.95751 -0.0182534 0)
(0.997713 0.0131573 0)
(0.974566 0.0160971 0)
(0.813844 1.04881 -2.51537e-19)
(0.653672 0.934464 0)
(0.82822 1.17916 3.65592e-20)
(0.721203 1.07028 0)
(1.19882 1.39953 -1.69088e-19)
(1.37082 1.14527 2.74259e-19)
(0.601604 2.08193 0)
(0.781472 2.01787 0)
(0.801381 2.00084 0)
(0.523594 1.21598 -3.62188e-19)
(0.603167 0.315309 0)
(0.599075 0.247837 1.84813e-19)
(1.2139 1.15064 0)
(1.28163 0.903416 0)
(1.35549 0.948851 -1.52142e-19)
(1.29465 0.72699 0)
(1.36838 0.509496 5.41598e-20)
(0.983426 0.016406 0)
(1.00963 -0.0203489 0)
(0.96652 -0.028396 0)
(0.996109 0.00826682 0)
(0.996415 0.00142909 0)
(0.971377 0.00567135 0)
(0.896727 -0.0206268 0)
(0.913055 -0.00854723 0)
(0.962705 0.00910036 0)
(-0.0100927 1.67747 3.01548e-19)
(0.067877 1.59543 0)
(-0.00601598 1.62792 5.50276e-19)
(0.0187109 1.62719 -4.52398e-19)
(0.177221 1.98491 -5.22505e-19)
(0.0114762 1.8847 0)
(0.0765848 1.90174 0)
(-0.0211308 1.78539 0)
(-0.0204931 1.7634 0)
(-0.00647805 1.76432 -1.43968e-21)
(0.0377362 1.69361 0)
(-0.0243919 1.72296 -1.04303e-19)
(0.0600948 1.71018 1.67803e-19)
(0.00933787 1.78485 0)
(0.0188129 1.74521 0)
(0.0189083 1.70697 0)
(0.00309674 1.7373 0)
(-0.00245212 1.71498 0)
(1.01994 0.0261699 0)
(1.0166 0.0274055 0)
(1.0308 -0.0125712 0)
(0.993991 0.021471 0)
(0.966909 -0.00959762 0)
(0.983191 0.000975486 0)
(0.962526 0.0154994 0)
(0.946619 -0.000699231 0)
(0.0978222 3.0154 -1.74003e-21)
(0.0874547 3.03805 0)
(-0.0414443 3.02463 0)
(-0.0371668 2.98351 0)
(0.603638 3.16604 0)
(0.841461 2.61467 6.34626e-19)
(-0.00174246 2.92199 0)
(-0.0609786 2.8482 0)
(-0.00810679 1.74946 0)
(0.00158663 1.71721 0)
(-0.00355037 1.73743 0)
(0.00886081 1.79635 -3.19442e-20)
(-0.0476942 1.7711 0)
(0.0238181 1.77063 0)
(0.0108591 1.69363 1.75291e-20)
(0.0318326 1.73651 5.67905e-20)
(0.00568406 1.74079 3.56607e-20)
(0.0316914 1.70963 0)
(0.770252 0.148345 5.9187e-19)
(0.749719 0.0716141 -5.71876e-19)
(0.184413 1.39477 0)
(0.234344 1.31398 -2.25061e-19)
(0.157303 1.47623 -6.43365e-19)
(0.145482 1.44298 6.42039e-19)
(0.984232 -0.012178 0)
(0.984842 -0.0133947 0)
(0.992226 -0.00811705 0)
(0.951524 0.014968 0)
(-0.0105908 1.75616 0)
(0.0124566 1.76453 0)
(-0.0150134 1.75213 0)
(0.515711 0.332354 3.38844e-19)
(0.537617 0.334964 -2.59559e-19)
(0.470966 0.346679 0)
(1.19644 0.103185 4.12884e-20)
(1.22945 0.0632809 0)
(1.14599 0.0479078 0)
(1.06845 0.0198236 0)
(0.791155 0.104305 0)
(0.828711 0.0448781 -2.69282e-18)
(0.771797 0.0325468 1.01813e-18)
(0.0630937 2.93648 -6.72588e-20)
(0.0409088 2.82177 4.02531e-20)
(0.085981 3.03033 -3.98834e-21)
(0.0486493 3.01712 1.97652e-19)
(-0.0429689 2.99642 6.74859e-21)
(-0.0709813 2.94854 -2.41587e-23)
(-0.0304113 3.02554 -1.21602e-19)
(-0.0101199 3.01267 8.75694e-20)
(0.0180565 3.00933 -2.04149e-19)
(1.01508 0.0220612 0)
(1.0026 0.0261089 0)
(0.985723 0.0280563 0)
(0.995017 -0.0187523 0)
(0.98467 -0.00949661 0)
(0.966038 -0.00714636 0)
(0.976829 -0.00195058 0)
(0.995757 0.0137927 0)
(0.958432 0.0181159 0)
(0.747726 1.12393 -7.16828e-21)
(0.533771 1.1823 0)
(0.685372 1.18207 1.04227e-19)
(0.689343 1.28553 7.64555e-19)
(0.736761 1.24352 -4.45532e-19)
(0.719122 1.13215 8.45738e-19)
(0.47521 1.30133 1.7148e-18)
(0.50863 1.23374 3.30603e-19)
(0.678343 0.242245 7.62245e-19)
(0.65611 0.273491 1.86416e-19)
(0.65424 0.234629 3.59313e-19)
(1.28159 0.510918 -4.03793e-20)
(1.32514 0.367836 -8.44377e-20)
(0.0195126 1.69098 2.00854e-19)
(0.0249919 1.67611 0)
(1.07342 0.0366559 0)
(1.06991 0.00715517 0)
(1.02072 -0.0228508 0)
(0.090343 3.05077 0)
(0.0209817 3.01784 6.40428e-20)
(-0.0105262 3.03083 0)
(-0.00828987 2.95576 -5.9953e-20)
(0.0811897 3.09429 5.75705e-21)
(0.0869713 3.06429 0)
(0.587239 1.35822 -1.14291e-19)
(0.871042 1.97614 3.64878e-19)
(0.510312 1.49103 -8.90251e-19)
(0.0219237 2.9549 1.71499e-19)
(-0.00688378 2.9546 0)
(-0.0240034 2.85117 0)
(0.00395002 1.78635 1.27656e-21)
(-0.030186 1.70344 -1.57848e-19)
(-0.061999 1.70469 2.08226e-20)
(0.248883 1.40698 6.87557e-19)
(0.329444 1.33369 -4.60287e-19)
(0.039282 1.62588 4.43632e-19)
(0.0773285 1.54718 -5.44046e-19)
(0.0766934 1.53851 6.6596e-20)
(0.0147605 3.1194 9.04664e-20)
(0.0328397 3.12617 -9.56573e-20)
(-0.034773 2.93283 3.52861e-20)
(0.0203491 2.93252 2.83443e-20)
(0.00558397 2.81728 -3.59473e-20)
(0.0553413 3.10283 2.85836e-20)
(0.0467869 3.13121 -4.03506e-20)
(0.557819 1.31821 0)
(0.641799 1.30839 -1.72419e-18)
(0.620354 1.2038 7.71064e-19)
(0.453234 1.34308 9.42215e-19)
(0.449977 1.28514 -1.46946e-18)
(1.28576 0.148186 1.06344e-19)
(1.28143 0.337563 0)
(1.30498 0.161185 -6.66955e-20)
(0.00208081 1.70795 -2.1564e-21)
(-0.00434448 1.71536 0)
(-0.0187259 1.66068 0)
(0.318243 1.38249 -2.3956e-19)
(0.36495 1.35269 -6.05386e-19)
(0.382925 1.30214 1.10271e-18)
(1.0454 -0.0909623 0)
(1.05106 -0.115775 5.94778e-19)
(0.0238463 1.76465 0)
(-0.00474649 1.76323 0)
(0.986113 -0.0210906 2.69954e-20)
(0.961216 -0.0551168 1.22894e-18)
(-0.00764789 1.79863 4.16727e-20)
(0.0321266 1.79309 0)
(0.00540907 3.08534 -4.10252e-19)
(0.106405 3.0673 0)
(1.11771 0.658807 -1.43411e-19)
(1.03363 -0.0144035 -1.74302e-20)
(1.04445 0.034616 0)
(1.01831 -0.00579439 -1.08469e-20)
(0.0843873 1.87303 0)
(0.0573496 1.72566 0)
(-0.0386267 1.78278 0)
(0.0601184 1.76174 1.19998e-19)
(-0.00416407 1.79094 4.19027e-20)
(0.996184 -0.0101585 5.48184e-21)
(1.09468 0.0466517 0)
(1.09082 0.0410581 0)
(0.0136456 1.74542 0)
(0.0257614 1.78437 0)
(-0.0400926 1.79011 0)
(0.217524 1.97467 -2.28236e-19)
(0.971716 -0.0676564 0)
(0.977352 -0.0554183 0)
(1.01521 0.0326055 7.88095e-19)
(1.04434 0.00340533 -9.17481e-19)
(1.01958 0.00730398 0)
(-0.0189807 1.73162 0)
(0.0280332 1.75316 0)
(-0.00458943 1.72657 0)
(-0.0315814 1.79659 0)
(-0.00739998 1.7751 0)
(-0.00834029 1.77643 0)
(1.02711 0.00949078 0)
(1.03128 -0.0218516 -9.62957e-21)
(0.815101 1.71397 3.3183e-19)
(1.03796 -0.0379096 -7.73801e-19)
(1.05754 0.0506253 9.77371e-19)
(1.03872 0.0210148 0)
(1.00611 -0.00454394 7.63327e-19)
(0.980075 -0.0203177 -9.78006e-19)
(0.998133 0.004349 0)
(0.0208598 1.79888 0)
(0.00778014 1.75433 4.48461e-20)
(0.00324309 1.76726 -3.42772e-20)
(1.22134 0.325913 8.05736e-19)
(1.13854 0.0858037 0)
(0.0262957 3.15179 2.38242e-19)
(0.018368 2.93731 5.32182e-21)
(-0.0266935 3.18554 -7.93995e-19)
(0.000295338 3.12219 2.52215e-19)
(0.00951663 3.04221 0)
(-0.00161433 3.10018 -1.05589e-19)
(-0.010471 3.13987 -2.20939e-19)
(0.0189534 3.11195 1.87998e-19)
(0.00333647 3.11089 0)
(0.680736 0.307345 0)
(0.567215 0.382908 0)
(1.07563 0.748828 3.74426e-19)
(1.1493 0.88531 -4.20969e-19)
(1.11073 0.630273 0)
(1.15621 0.611903 0)
(1.04978 0.0105343 -1.45113e-18)
(1.02079 -0.00493599 1.83107e-18)
(1.06004 0.0120035 0)
(1.01399 -0.0435431 0)
(0.949663 0.0400378 0)
(1.01123 -0.0181933 0)
(1.02531 -0.0181771 0)
(1.02498 -0.0478997 0)
(1.03788 -0.0282184 0)
(1.02085 0.0317407 0)
(0.0620382 1.88129 0)
(0.0199037 1.86724 0)
(0.10096 1.87087 0)
(0.122936 1.90881 0)
(0.0426646 1.62244 0)
(0.0634165 1.66323 -3.05713e-19)
(0.0855586 1.73244 0)
(0.0856313 1.72125 1.85526e-19)
(0.0192308 1.74014 -1.66764e-19)
(-0.0358005 1.79485 0)
(-0.00371617 1.78255 0)
(-0.0274971 1.78618 0)
(-0.0389595 1.79914 0)
(-0.0191412 1.72705 -1.06717e-20)
(0.00314607 1.71197 9.93424e-20)
(0.0523097 1.81056 4.29288e-22)
(0.0361492 1.78755 0)
(-1.28635e-05 1.7967 -9.23537e-20)
(0.00488802 1.7765 -1.28843e-19)
(-0.0180414 1.7634 1.50365e-21)
(0.0260145 1.67839 -1.25867e-19)
(0.0791299 1.7939 -5.21548e-22)
(0.992693 -0.0217653 1.31327e-18)
(1.00601 -0.0467838 -1.71717e-18)
(1.00141 0.00441224 -1.37942e-18)
(0.947331 -0.00630323 1.80876e-18)
(1.03342 -0.0101208 0)
(1.03589 0.00449431 0)
(1.00303 0.0163887 0)
(1.08928 0.0408021 0)
(1.05102 0.0160301 0)
(1.0418 0.0533911 0)
(1.09452 0.0380792 0)
(1.08048 0.0325082 0)
(-0.0828893 1.75263 -1.9591e-21)
(0.0729928 1.73568 0)
(-0.0357131 1.73963 0)
(-0.0249163 1.76445 2.32084e-20)
(-0.0256825 1.79097 -8.30033e-22)
(0.00564576 1.78098 -5.37555e-20)
(-0.0228118 1.77766 5.53169e-20)
(-0.00578061 1.77879 0)
(-0.0238926 1.77984 0)
(0.00226884 1.78137 0)
(-0.0253822 1.78011 0)
(-0.00494378 1.7811 0)
(0.429101 1.92714 3.20433e-19)
(0.414795 2.00675 1.62325e-19)
(0.230608 1.48416 -1.70931e-19)
(0.217285 1.52827 4.09432e-19)
(0.350495 1.66269 8.78764e-20)
(0.998904 0.00701896 0)
(0.993326 -0.00587415 0)
(1.01475 0.0391777 0)
(1.00994 -0.0333608 0)
(0.996323 -0.0271855 0)
(0.926679 0.0181462 0)
(0.966592 0.113152 0)
(1.05554 0.101996 0)
(1.00361 -0.0281292 1.40708e-18)
(1.01534 -0.0115517 -1.78898e-18)
(1.03258 -0.0121245 -1.34556e-18)
(1.00664 0.0078544 1.77887e-18)
(0.793809 1.7402 0)
(0.747907 1.75143 2.3309e-19)
(0.860091 1.51565 4.70982e-20)
(0.900625 1.55841 -6.27869e-20)
(0.960326 1.61451 7.90871e-19)
(0.873359 0.11091 6.22137e-19)
(1.14104 0.110375 0)
(1.11738 0.194572 -6.8158e-19)
(1.13263 0.11502 -2.93042e-20)
(0.954151 0.176374 0)
(-0.0654478 3.18164 -6.10828e-19)
(0.0636309 3.09989 6.18056e-19)
(0.128387 2.67094 -1.77966e-19)
(0.411279 0.645731 2.67402e-19)
(0.0256886 3.05879 -4.78288e-19)
(-0.0170563 3.07706 0)
(0.057472 3.0165 5.95023e-19)
(-0.111006 3.07182 1.3813e-18)
(-0.0990911 3.08508 0)
(-0.0097077 3.11372 -5.85407e-21)
(0.0110559 3.12641 3.42532e-20)
(-0.00236505 3.11419 -4.3358e-20)
(0.00651337 3.10885 0)
(0.0103051 3.12243 0)
(0.954053 1.80866 0)
(0.0428812 0.952093 -5.21067e-19)
(1.06099 1.19833 9.83743e-20)
(0.92624 1.33424 0)
(0.7822 1.14186 -2.0435e-19)
(0.993802 1.10813 3.48267e-20)
(0.529015 0.209346 2.00097e-19)
(0.665337 0.308063 -9.90732e-21)
(0.65235 0.321945 3.90101e-19)
(0.564399 0.384716 1.78981e-20)
(0.529658 0.372732 -6.49551e-19)
(0.674862 0.347418 0)
(0.656889 0.393974 5.52365e-19)
(0.648064 0.371462 0)
(0.561612 0.383744 0)
(0.580914 0.350799 0)
(0.606877 0.734834 4.87633e-19)
(1.22251 0.32275 -6.14057e-19)
(1.16496 0.366779 0)
(1.20863 0.322797 0)
(0.786046 0.228538 6.11102e-19)
(0.626906 0.570958 -3.92207e-19)
(0.641335 0.484616 7.27349e-19)
(0.838767 0.411192 -7.9939e-19)
(0.995822 0.0321726 9.68215e-19)
(1.01527 0.056835 -1.01153e-18)
(1.00233 0.0614497 0)
(1.01333 -0.0117334 0)
(1.00948 -0.0539479 -9.53379e-19)
(1.00906 -0.0106006 9.44372e-19)
(0.998071 0.0192954 0)
(0.989114 -0.00891551 0)
(1.04139 -0.0136981 0)
(1.0104 -0.00196646 0)
(1.01143 -0.0479208 0)
(1.00619 -0.0352974 0)
(0.0169686 1.85085 0)
(0.0383835 1.82463 0)
(0.0193122 1.84059 1.3684e-19)
(0.21754 1.95467 1.14256e-19)
(0.133957 1.92419 1.86007e-19)
(0.11549 1.93116 -3.34402e-19)
(0.0211184 1.80688 0)
(0.231644 1.75998 -1.22189e-19)
(0.187965 1.82981 0)
(0.303026 1.72412 -1.27251e-19)
(0.271427 1.65728 5.07263e-19)
(0.186508 1.72755 1.04501e-19)
(0.232852 1.90887 4.33055e-20)
(0.127293 1.74436 -3.477e-20)
(0.331303 1.80453 -6.37293e-20)
(0.218194 1.72825 0)
(0.245006 1.73736 5.85106e-20)
(0.0146496 1.72288 -5.12056e-20)
(-0.00161252 1.72487 0)
(0.0641377 1.70011 1.47039e-19)
(-0.0155611 1.71748 0)
(0.0669472 1.7419 -2.14325e-19)
(0.0391113 1.73915 0)
(0.0433647 1.76855 -2.02332e-20)
(0.0388188 1.77893 0)
(0.0616321 1.76083 0)
(0.0579186 1.77041 2.35149e-20)
(0.0316913 1.7091 -9.97667e-21)
(0.0320413 1.76777 1.92002e-19)
(0.0319876 1.74515 1.72965e-21)
(0.0510945 1.67364 2.33237e-20)
(-0.00197595 1.71553 8.72952e-21)
(0.0266659 1.76062 0)
(-0.013663 1.76969 0)
(-0.0141864 1.76879 9.69279e-20)
(-0.0208731 1.74121 1.296e-19)
(-0.0284503 1.7655 -1.57432e-19)
(0.00221557 1.78152 0)
(-0.0292584 1.73898 -5.15843e-20)
(-0.0261197 1.75225 -7.64516e-22)
(0.0223806 1.79493 2.53143e-21)
(0.0643584 1.75662 -2.81277e-20)
(0.00921247 1.66284 -4.18851e-20)
(-0.0354366 1.77101 6.05968e-20)
(0.999451 0.0313849 -9.81825e-19)
(0.989493 0.00678383 9.2983e-19)
(0.989621 0.0412329 0)
(0.976009 -0.0210484 1.31572e-18)
(0.921666 0.0872724 -1.44459e-18)
(0.920042 0.0735062 1.60706e-18)
(0.979087 -0.0225711 -1.63362e-19)
(1.05753 -0.0345118 0)
(1.02807 -0.0275586 8.77873e-19)
(1.033 -0.044513 -8.74277e-19)
(0.961234 0.0367286 -5.15037e-20)
(0.993334 0.0518519 4.29125e-19)
(0.972106 0.0807267 0)
(0.972171 0.0379144 -1.59166e-19)
(1.00804 0.0576651 0)
(0.985757 0.0561463 0)
(1.00625 0.0684911 0)
(0.998084 0.0227508 0)
(1.04011 0.0695406 3.17704e-19)
(0.998184 0.0325927 -7.27918e-19)
(0.92556 -0.0116334 -3.34259e-19)
(0.974022 0.018684 -3.72864e-19)
(1.04917 0.0877393 6.90609e-19)
(1.05233 0.0767083 0)
(0.972063 0.0476563 0)
(-0.0150495 1.77396 4.68584e-20)
(0.0567039 1.73588 1.78962e-21)
(-0.0112855 1.78525 0)
(0.0243981 1.79301 -4.72327e-20)
(-0.0112495 1.77021 1.32451e-22)
(0.0232392 1.75355 -1.00771e-20)
(-0.00341857 1.78536 1.15694e-19)
(0.0672739 1.75632 -4.49092e-21)
(0.078073 1.68203 3.48162e-20)
(-0.0541976 1.79082 -5.39032e-20)
(-0.0275994 1.79211 6.60629e-20)
(0.0560014 1.7513 -8.04185e-21)
(-0.01628 1.71417 7.61552e-23)
(0.451968 1.80109 -1.09117e-19)
(0.407605 1.74421 1.26192e-19)
(0.725046 1.80872 -2.22704e-19)
(0.595037 1.90447 -1.62506e-19)
(0.628091 1.87775 0)
(0.273377 1.48408 1.80037e-19)
(0.353511 1.46859 2.38012e-19)
(0.215935 1.52181 3.72953e-20)
(0.287471 1.52627 -5.84938e-19)
(0.287482 1.50629 5.55167e-19)
(0.251322 1.52148 0)
(0.20414 1.51027 -3.77838e-19)
(0.0973645 1.60812 7.81717e-19)
(0.189011 1.62714 -2.70071e-20)
(0.0993575 1.62169 -1.00999e-18)
(0.554445 1.45754 1.04071e-18)
(0.486753 1.45966 0)
(1.01535 0.0298666 2.8777e-20)
(1.06473 0.0296837 -2.42772e-20)
(0.973716 -0.0743504 -4.69844e-19)
(0.980714 -0.0163106 4.62631e-19)
(0.985495 0.0534635 0)
(0.73235 1.65103 0)
(0.668258 1.55977 0)
(0.835183 1.33274 0)
(0.60406 1.44052 0)
(0.959384 1.58112 5.29578e-20)
(0.932377 1.53907 0)
(0.642777 1.56417 6.53259e-21)
(0.488663 1.55934 0)
(0.562934 1.51734 -7.04004e-19)
(0.580761 1.52803 4.41489e-19)
(0.871151 0.120312 0)
(0.833358 0.130892 1.70783e-19)
(0.900388 0.0624015 9.86776e-19)
(0.856445 0.105176 -3.49707e-19)
(0.836294 0.105309 -1.21594e-18)
(1.00633 0.157233 -1.0069e-18)
(0.873448 0.27027 -3.34731e-20)
(0.811475 0.264673 9.30927e-19)
(0.945233 0.160558 8.26542e-19)
(0.891362 0.133804 -1.3209e-18)
(0.888823 0.211451 1.63144e-19)
(0.785799 0.28065 -3.78138e-19)
(0.892008 0.253113 0)
(0.947783 0.161595 6.36897e-19)
(0.937031 0.194935 0)
(0.968394 0.221664 0)
(1.02734 0.176135 3.45749e-19)
(0.954222 0.212998 -2.85037e-22)
(0.937121 0.152422 -2.10429e-19)
(0.950643 0.152858 0)
(1.00266 0.0647281 7.04638e-19)
(1.01095 -0.000903282 8.80851e-19)
(1.02895 0.0649228 -6.67467e-19)
(1.00752 0.0743315 -6.00097e-19)
(0.928639 0.0412955 -9.30298e-19)
(0.935518 0.130603 0)
(0.966139 -0.00551314 0)
(0.922102 0.0914995 -5.72619e-19)
(0.912457 0.0473973 2.13727e-19)
(1.01455 0.0832976 7.75978e-19)
(1.03206 0.107812 -9.59499e-19)
(0.978768 0.122073 8.58386e-19)
(0.944661 0.166041 0)
(0.969025 0.0867723 0)
(0.978717 0.0918746 -3.84862e-19)
(0.985274 0.102031 -6.39626e-19)
(0.61488 1.58597 2.73333e-19)
(0.567361 1.61882 -3.59766e-19)
(0.799425 1.74265 -4.14805e-19)
(0.804595 2.06837 4.7606e-20)
(0.985889 1.73354 -6.71141e-19)
(0.984064 1.83955 5.12479e-20)
(1.06075 1.69975 -4.29487e-20)
(0.837118 1.98227 -2.28659e-19)
(0.831633 1.84849 4.90582e-19)
(0.780539 2.28509 -3.88328e-20)
(0.996074 2.02474 4.55993e-20)
(1.01333 2.06396 0)
(0.20457 1.15317 -7.7265e-20)
(-0.31866 2.07284 -4.63268e-19)
(0.561257 0.221175 2.77017e-20)
(0.0632606 0.530031 -2.63421e-19)
(0.504315 0.375303 3.59042e-19)
(0.466538 0.353227 -6.09326e-19)
(0.439693 0.291343 4.08787e-19)
(0.531289 0.330807 -4.98714e-20)
(0.501596 0.332744 2.73714e-19)
(0.787522 0.265383 -3.54887e-19)
(0.670663 0.321783 0)
(0.709712 0.259136 1.41564e-20)
(0.569049 0.471795 3.02678e-19)
(0.518508 0.490553 -1.0825e-18)
(0.474191 0.377192 -4.79492e-20)
(0.499126 0.409896 0)
(0.390991 0.936544 4.86364e-19)
(0.679056 0.921027 6.34215e-19)
(0.628302 0.933345 -7.27483e-19)
(0.659754 0.939238 -2.41558e-19)
(0.859506 0.910177 -7.6054e-20)
(0.842352 0.950197 7.76727e-20)
(0.768605 0.650359 -8.3033e-19)
(0.77517 0.808843 2.27877e-19)
(0.903467 0.819106 0)
(0.858934 0.779695 -2.96379e-19)
(0.920061 0.397872 2.40257e-19)
(1.05949 0.3149 3.65598e-19)
(1.10604 0.262311 3.98219e-19)
(0.883841 0.429872 -4.97175e-19)
(1.01469 0.356732 0)
(0.953358 0.38761 0)
(0.829744 0.359839 2.42954e-20)
(0.753352 0.315928 0)
(0.74447 0.336989 4.21679e-19)
(0.923796 0.252115 -2.61765e-20)
(0.871035 0.459824 2.24241e-18)
(0.746329 0.508296 6.22903e-19)
(0.775413 0.515799 -5.77197e-19)
(0.733785 0.387852 6.18803e-19)
(0.678949 0.438928 3.62019e-19)
(0.649355 0.425872 -3.49766e-19)
(0.979818 0.088831 7.53464e-19)
(0.985803 -0.0849785 0)
(1.00962 0.0127796 4.97325e-19)
(0.959556 0.0865024 -1.12482e-18)
(1.01677 -0.0401985 5.46658e-19)
(1.00137 0.0694629 -1.15473e-18)
(1.01521 -0.00719356 0)
(0.983817 -0.0529531 -2.43443e-19)
(1.00073 0.0707724 6.31586e-19)
(0.952451 0.0190651 -3.34051e-19)
(0.969796 -0.0655773 2.34244e-19)
(0.00581491 1.81541 0)
(0.0932759 1.76166 0)
(0.0461053 1.79675 0)
(0.0200544 1.82073 0)
(0.0955624 1.753 7.78612e-20)
(0.102387 1.75504 -8.42577e-20)
(0.100153 1.7843 -7.49553e-21)
(0.109899 1.75433 -1.18524e-19)
(0.0431696 1.73127 -9.74357e-20)
(0.0410523 1.78043 7.09835e-20)
(0.0526182 1.79716 -5.51627e-20)
(0.0516844 1.80061 3.12523e-20)
(0.0224555 1.738 -2.11781e-21)
(0.0215625 1.76253 -1.19992e-20)
(0.101876 1.71144 -1.51017e-19)
(0.131085 1.73671 0)
(0.128897 1.71998 1.23156e-19)
(0.10059 1.81691 7.06278e-20)
(0.142517 1.67552 -9.15019e-20)
(0.14709 1.61082 0)
(0.149978 1.60583 -5.36671e-19)
(0.206226 1.63609 3.97715e-19)
(0.133235 1.67497 -2.29073e-19)
(0.127546 1.68191 1.34482e-19)
(0.038344 1.58842 0)
(0.0297219 1.73113 -8.92231e-20)
(0.0333463 1.71719 -2.01751e-19)
(-0.0243545 1.67815 0)
(0.0502384 1.76596 -1.73746e-21)
(0.0195799 1.74394 4.50874e-20)
(-0.0158993 1.80331 -3.58474e-21)
(0.0117864 1.77754 1.42075e-20)
(-0.011723 1.76401 -3.48761e-20)
(-0.0396855 1.75072 3.26452e-20)
(0.0367418 1.78794 0)
(-0.00713976 1.81613 0)
(0.0141416 1.75567 5.52357e-21)
(0.0114175 1.76917 -3.79455e-21)
(0.00132981 1.8303 0)
(-0.0379008 1.78342 -1.29334e-20)
(-0.025483 1.76242 1.10683e-20)
(0.958907 0.132822 0)
(1.05322 0.155231 -8.17433e-20)
(1.03469 0.0117448 -5.05756e-19)
(0.94686 -0.0190105 0)
(1.01902 -0.0132448 0)
(1.07482 -0.0963208 -4.77183e-20)
(0.951487 -0.0803033 9.69988e-19)
(1.00862 -0.00291438 1.09635e-18)
(0.984585 0.0135832 0)
(0.99362 0.00199288 0)
(0.980519 -0.0211805 5.86434e-19)
(0.999746 0.0317448 0)
(0.987264 0.0388617 0)
(-0.0569052 1.81674 0)
(-0.00381043 1.69352 1.17968e-20)
(-0.0483782 1.76026 1.0935e-20)
(-0.00199297 1.73429 0)
(0.0439936 1.67015 2.11932e-20)
(0.0709187 1.75174 1.78181e-20)
(0.0239237 1.77626 0)
(0.43401 1.66634 0)
(0.333553 1.68746 -3.01428e-19)
(0.362134 1.65379 0)
(0.454944 1.76545 2.63526e-19)
(0.475547 1.80228 0)
(0.464872 1.79307 -7.27657e-20)
(0.614612 1.51119 -2.1894e-20)
(0.583174 1.45948 -1.22403e-18)
(0.635978 1.44668 1.53045e-18)
(0.524717 1.45436 2.71262e-19)
(0.534897 1.50978 0)
(0.549653 1.50765 0)
(0.560715 1.46319 0)
(0.544635 1.45235 -9.84614e-19)
(0.352853 1.49363 -5.53706e-19)
(0.429361 1.48802 -1.35137e-19)
(0.453326 1.47568 1.12096e-19)
(0.376763 1.48276 0)
(0.450541 1.48728 0)
(0.408945 1.48438 -2.91541e-19)
(0.413334 1.49075 0)
(0.454479 1.51378 0)
(0.314626 1.47615 -7.03492e-19)
(0.393596 1.2707 -5.3636e-20)
(0.616768 1.57868 0)
(0.470365 1.61395 1.12851e-18)
(0.682463 1.16227 -2.18191e-19)
(0.776742 1.21372 0)
(0.732052 1.17997 3.32541e-19)
(0.413841 1.45516 0)
(0.465179 1.25448 0)
(0.83141 1.60575 -4.18121e-19)
(0.77308 1.65683 -3.34462e-19)
(0.670837 1.59456 6.11352e-19)
(0.679886 1.60098 -1.75656e-19)
(0.807509 1.53338 0)
(0.720849 1.52008 2.39494e-19)
(0.8953 1.51751 -3.65479e-19)
(0.830855 1.50452 -2.26883e-20)
(0.578182 1.56447 0)
(0.565842 1.62336 -2.4081e-19)
(0.604321 1.59849 0)
(0.852234 0.235463 0)
(0.836916 0.152598 0)
(0.759402 0.202995 0)
(0.822931 0.24431 -6.74228e-19)
(0.770577 0.22468 3.76767e-19)
(0.941321 0.00763029 -4.3915e-19)
(0.926889 0.0462895 0)
(0.893125 0.0342441 1.94964e-19)
(0.84597 0.0633836 7.91894e-19)
(0.880765 0.0202421 -4.8876e-19)
(0.656146 2.5032 -3.79008e-19)
(0.698425 2.40574 0)
(0.709341 2.68703 -1.25976e-18)
(0.167687 2.9171 9.61978e-19)
(0.23331 2.57859 8.66835e-20)
(-0.107236 1.5257 6.4719e-19)
(0.0500103 1.64179 0)
(-0.150218 0.592889 -3.52709e-20)
(-0.0412255 0.708719 8.42355e-19)
(0.18975 0.0828008 -5.27227e-20)
(0.400411 0.393839 2.30405e-20)
(0.539595 0.445148 3.49714e-19)
(0.585074 0.468637 0)
(0.297806 0.586306 0)
(0.357353 0.47248 0)
(0.838819 0.666172 1.87372e-19)
(0.740407 0.523946 -6.09629e-19)
(0.800028 0.594987 5.32024e-19)
(0.845707 0.49322 -4.56671e-19)
(1.08753 0.485847 0)
(1.05069 0.626104 -1.4317e-19)
(0.763166 0.328987 -8.5464e-19)
(0.738738 0.318812 -1.11737e-18)
(0.649678 0.442865 6.70512e-19)
(0.689812 0.368307 -6.49016e-19)
(0.754137 0.316019 -5.11599e-19)
(0.738351 0.31663 6.4369e-19)
(1.04952 -0.025234 -5.58944e-19)
(1.06193 0.00289506 1.17509e-18)
(1.01751 0.0764325 7.03567e-19)
(1.01982 0.0275433 -8.58934e-19)
(0.886364 0.0439804 0)
(0.860217 -0.0406845 -1.52635e-18)
(0.071935 1.74005 3.38568e-20)
(0.0296865 1.73956 0)
(0.0287531 1.77746 2.16671e-19)
(0.0286084 1.78313 -1.94203e-19)
(0.0173025 1.67652 1.35715e-20)
(0.0240129 1.69348 0)
(0.084625 1.79477 0)
(0.0225705 1.82185 8.61121e-21)
(3.10927e-05 1.64177 -7.49323e-21)
(0.0174564 1.64197 9.75118e-21)
(0.0106597 1.77819 -2.81932e-20)
(0.0701311 1.7341 3.32389e-20)
(0.516178 1.59909 -7.47789e-19)
(0.509283 1.61454 8.03937e-19)
(0.509838 1.69141 -1.91979e-19)
(0.53547 1.6553 3.08189e-20)
(0.703499 1.62782 0)
(0.540789 1.77924 1.52883e-20)
(0.572548 1.73667 -1.45612e-20)
(0.522708 1.75548 1.9413e-19)
(0.599674 1.66399 0)
(0.622542 1.59222 0)
(0.404149 1.48439 8.07894e-19)
(0.296525 1.49237 1.29533e-18)
(0.376277 1.49603 -8.76482e-19)
(0.232943 1.51056 -1.50519e-19)
(0.387071 1.5061 2.9111e-19)
(0.243282 1.49174 -7.07189e-19)
(0.69298 1.47225 -8.05667e-19)
(0.784626 1.49331 0)
(0.748712 1.47267 -8.04441e-19)
(0.66879 1.4893 0)
(0.661612 1.48043 0)
(-0.104505 2.28158 -2.66456e-19)
(0.423934 2.1201 -1.36926e-19)
(0.341547 2.34947 1.56489e-19)
(-0.40348 1.67674 0)
(-0.42504 1.401 -2.25034e-19)
(-0.270692 1.46738 -5.0752e-19)
(-0.228573 2.38162 0)
(-0.324678 2.56959 -5.32686e-20)
(-0.292613 2.75889 0)
(0.404476 0.733438 -1.02895e-18)
(0.612125 0.812081 1.34149e-18)
(0.621364 0.709971 -1.25695e-18)
(0.341087 0.628323 -1.1503e-19)
(0.547331 0.559191 -4.38761e-19)
(0.482059 2.08784 1.04589e-19)
(0.591561 1.88091 -4.57312e-19)
(0.266477 2.0827 1.01841e-18)
(0.436322 1.91901 -7.18946e-19)
(0.540914 1.68401 -7.92259e-19)
(0.611076 1.79156 -1.70517e-19)
(0.632489 1.75945 6.39983e-19)
(0.559736 1.8899 4.63882e-20)
(0.506932 1.7631 3.63688e-19)
)
;

boundaryField
{
    wall-4
    {
        type            noSlip;
    }
    velocity-inlet-5
    {
        type            fixedValue;
        value           uniform (1 0 0);
    }
    velocity-inlet-6
    {
        type            fixedValue;
        value           uniform (0 3 0);
    }
    pressure-outlet-7
    {
        type            zeroGradient;
    }
    wall-8
    {
        type            noSlip;
    }
    frontAndBackPlanes
    {
        type            empty;
    }
}


// ************************************************************************* //
