/*--------------------------------*- C++ -*----------------------------------*\
  =========                 |
  \\      /  F ield         | OpenFOAM: The Open Source CFD Toolbox
   \\    /   O peration     | Website:  https://openfoam.org
    \\  /    A nd           | Version:  6
     \\/     M anipulation  |
\*---------------------------------------------------------------------------*/
FoamFile
{
    version     2.0;
    format      ascii;
    class       volScalarField;
    location    "7";
    object      p;
}
// * * * * * * * * * * * * * * * * * * * * * * * * * * * * * * * * * * * * * //

dimensions      [0 2 -2 0 0 0 0];

internalField   nonuniform List<scalar> 
918
(
0.213077
1.04623
0.00207306
0.207835
0.000258889
1.01437
-0.723909
0.43376
0.191706
-0.127058
0.0302591
0.18809
0.869982
0.635491
-1.4166
0.0213435
0.359437
-0.658631
0.179006
0.0153106
0.542928
0.203042
0.204483
0.194884
0.245085
0.597046
0.747932
0.000253599
-0.000680974
-0.00235694
0.00214492
-0.00101247
0.00811177
0.89779
0.949318
0.972221
0.16719
-0.321264
-0.589499
-0.676102
-0.596654
-0.747975
0.414052
0.416657
-0.505813
0.436156
0.453265
0.185356
0.190615
0.190011
0.198105
0.19197
0.194662
0.278295
-0.127153
-0.166954
-0.0598636
-0.036232
0.0858762
0.0309731
0.0320661
0.0232898
0.0294682
0.130884
0.182254
0.180945
0.188643
0.198215
0.986294
0.960645
0.98662
0.894917
0.913536
0.848213
0.821973
0.656635
0.680188
0.619865
0.606994
-1.9153
-2.92081
-0.79228
-0.522113
0.00370087
0.0238879
0.0188755
0.342765
0.346847
0.356529
0.370899
0.697538
-0.627168
-0.834114
0.187233
0.186473
0.19539
0.196343
0.185953
0.189916
0.0189549
0.0167389
0.00423482
0.0137221
0.0139855
0.528482
0.518433
0.192817
0.183796
0.209637
0.227261
0.212444
-0.0337265
0.25355
0.290752
0.449113
0.600795
0.590884
0.601032
0.723142
0.690143
0.781788
0.804579
0.00708556
0.000454311
0.0247007
0.00870865
0.0210833
0.163008
0.157572
0.178622
0.173813
0.170113
-0.300242
-0.33599
-0.400537
-0.459724
-0.53291
-0.61299
-0.653572
-0.618658
-0.797099
0.633652
0.394022
0.393184
-0.480832
-0.413809
-0.561347
-0.384419
-0.453526
0.169364
0.181299
0.176754
0.178554
0.185648
0.185282
0.192443
0.190438
0.191912
0.302866
0.371127
0.248458
0.227489
-0.423566
-0.216464
-0.374139
-0.0133273
-0.000619753
0.102054
0.113229
0.0776623
0.0757169
0.00237692
0.0266399
0.00584803
0.0314283
0.0333889
0.113693
0.108791
0.139573
0.143818
0.174446
0.17633
0.176173
0.173194
0.774304
0.798165
0.802143
0.776621
-3.95826
-6.64179
-0.146098
0.00628002
0.0041985
0.0022815
0.00269843
0.00486355
0.00452819
0.00260696
0.0468046
0.0468247
0.0305746
0.0465794
0.326948
0.329502
0.694368
0.761988
0.636334
0.628033
0.183017
0.181573
0.184135
0.172242
0.0284663
0.0203231
0.0208691
0.461164
0.495057
0.486246
-0.0802471
-0.164463
0.0166644
0.0398461
0.314024
0.296789
0.308205
0.508384
0.547805
0.81975
0.839899
0.82922
0.840482
0.890908
0.914051
0.876184
0.148169
0.15137
0.149472
0.182109
0.17814
0.174712
0.171414
0.174476
0.176077
-0.402017
-0.699716
0.0717097
-0.131871
-0.440929
-0.301902
0.674247
0.733067
0.368543
0.380707
0.386137
-0.316521
-0.383155
0.197546
0.177926
0.0657158
0.100475
0.0800836
0.747349
0.704925
0.755111
0.729551
0.693494
0.719566
-0.580175
-2.41424
-1.32917
0.388982
0.200936
0.29045
0.0672831
0.0518322
0.0574036
0.756028
0.799787
0.402537
0.529565
0.496589
0.575276
0.601914
0.663589
0.594494
0.629341
0.661927
0.637435
0.508352
0.248102
0.403701
0.750725
0.816801
-0.186087
-0.276404
-0.301015
0.119693
0.146622
0.124293
0.790598
0.799138
0.828523
0.187376
0.190774
0.013271
0.0164179
0.190858
0.186803
0.00659453
0.0025877
0.28796
-1.1854
-0.200472
0.189038
0.177706
0.190146
-0.0539487
0.249998
0.0282166
0.08939
0.0640473
0.179617
0.13724
0.102053
-0.00160866
0.0271699
0.0190961
-0.280376
0.181205
0.175589
0.189297
0.189948
0.190436
0.00404777
0.0100365
0.00657765
0.0157385
0.014024
0.0128052
0.16409
0.172366
-0.317851
0.187459
0.189846
0.189907
0.188404
0.190205
0.192092
0.0186397
0.011664
0.0199391
-0.058771
0.0493094
0.493941
0.582923
0.440164
0.266228
0.00840179
0.413147
0.474182
0.384134
0.534088
0.37013
0.417964
-0.109803
-0.227976
-0.123661
-0.171481
0.181157
0.18078
0.171881
0.168004
0.180828
0.186126
0.182895
0.185188
0.188026
0.186486
-0.0142318
-0.0241344
-0.0794648
-0.153883
0.281795
0.354978
0.209613
0.228012
0.147524
0.0419479
0.0309817
0.0304549
0.0332441
0.0666076
0.0668438
0.0776293
0.0772709
0.0566246
0.053592
0.0662347
0.064216
0.0702261
0.176763
0.174795
0.180709
0.185351
0.141217
0.148226
0.117564
0.135465
0.115503
0.0748216
0.0936719
0.0762247
0.00929169
0.00518211
0.00617093
0.0279021
0.0355902
0.0241715
0.0158834
0.0210072
0.0154083
0.0120664
0.0235973
0.0261125
-0.238494
-0.351432
0.671828
0.559884
0.329542
0.185045
0.182488
0.182638
0.175542
0.183663
0.191507
0.190701
0.184353
0.174333
0.175447
0.173312
0.171164
-0.256539
-0.388045
-0.253148
-0.338437
-0.471263
0.296619
0.0495538
0.00310913
-0.0271638
0.177672
0.51447
0.428044
0.527814
0.518214
-0.574002
-0.128791
-0.484802
0.0895993
0.0873269
0.510744
0.556965
0.575451
0.528672
0.48007
-0.317019
0.15983
-0.324251
-0.280731
-0.184495
-0.231171
0.489394
0.349978
0.360462
0.411054
0.438431
0.36226
0.344693
0.340707
0.388723
0.387466
0.158632
-0.046797
-0.087097
-0.146519
0.339814
0.204214
0.261268
0.178345
0.177183
0.179497
0.181079
0.169662
0.171407
0.175215
0.172998
0.174881
0.182279
0.176585
0.177536
0.186259
-0.00767323
-0.00862585
-0.0498216
-0.194555
-0.174895
-0.259434
-0.107451
0.123352
0.100029
0.299457
0.374396
0.0581197
-0.0963638
-0.0636817
0.0288885
0.152276
0.172203
0.119405
0.165126
0.170508
0.145008
0.203065
0.19667
0.0478903
0.0579977
0.0411979
0.0372477
0.0947362
0.117664
0.113593
0.0549129
0.0565323
0.0369343
0.0344655
0.0851276
0.0524695
0.0647272
0.0757928
0.0285357
0.0284047
0.0354974
0.0465745
0.0407187
0.0472773
0.174038
0.173478
0.17737
0.192117
0.195415
0.21287
0.186929
0.157923
0.150973
0.151382
0.141045
0.151084
0.148131
0.156166
0.164169
0.171543
0.170438
0.171776
0.163201
0.159844
0.15706
0.163355
0.13452
0.107841
0.101033
0.0230916
0.0167282
0.024881
0.0146124
0.0151415
0.0179446
0.0473787
0.0413746
0.041444
0.0410622
0.0448205
0.0217498
0.0217043
-0.10042
0.0205912
-0.296479
-0.292397
-0.388707
0.657872
0.724855
0.559048
0.474238
0.505867
0.593058
0.621957
0.39239
0.476641
0.473078
0.532073
0.711466
0.177465
0.181346
0.17856
0.17508
0.180869
-0.180927
-0.196161
-0.254056
-0.245615
-0.414991
-0.456556
0.103352
0.440974
0.383681
0.205865
0.285343
0.30231
0.249779
0.279114
0.281671
0.109029
0.176761
0.237753
0.178354
0.227722
0.250573
0.213843
0.246914
0.186722
0.150793
0.148999
0.0963776
0.118267
0.100764
0.0753725
0.173968
0.154635
0.161802
0.15395
0.17763
0.202886
0.196499
0.213346
0.233052
0.164141
0.130471
0.137582
0.156662
0.121297
0.130915
0.146079
-0.905742
-0.968014
-0.468732
-0.721328
-0.63462
-0.377695
-0.464552
-0.713258
-0.488111
-0.961547
-0.692697
-1.35259
0.00803818
0.652723
0.460802
0.469649
0.441117
0.428173
0.438163
0.465857
0.464349
0.330511
0.343702
0.346733
0.296617
0.33076
0.396483
0.375948
0.115853
0.0337983
-0.0168335
-0.00403179
-0.128187
-0.102592
0.109577
0.0452356
-0.0273448
-0.0240112
0.140919
0.0289081
0.0990889
0.13794
0.103656
0.0416969
0.233087
0.292305
0.278671
0.270146
0.173686
0.185079
0.217709
0.258234
0.279555
0.315122
0.166435
0.174835
0.177593
0.17259
0.17023
0.173338
0.17664
0.178447
0.17418
0.17616
0.178935
0.0297888
0.0339067
0.00795108
0.0171991
0.033322
0.0142743
0.0569979
0.0183086
0.0480969
0.0589179
0.0347732
0.0133405
0.0195925
0.0328802
0.158293
0.181928
0.177315
0.130811
0.232317
0.348152
0.396399
0.343826
0.199036
0.225637
0.280374
0.0940919
0.0917487
0.0825036
0.098873
0.101813
0.0438093
0.0407257
0.0415618
0.0473092
0.0461548
0.034693
0.0305205
0.0300158
0.0315954
0.0338873
0.033487
0.160227
0.152074
0.146286
0.138019
0.141024
0.158474
0.161335
0.164942
0.168894
0.17138
0.164971
0.171236
0.171953
0.0374172
0.0236405
0.0281043
0.0305705
0.028865
0.0231132
0.0244282
0.245768
0.107928
0.22132
0.0554346
-0.173171
-0.0729805
0.324374
0.477027
0.321816
0.628372
0.597517
0.426547
0.4471
0.613983
0.405402
0.644365
0.548176
0.680292
0.662891
0.729542
0.621126
-0.421872
-0.266195
-0.165474
-0.722919
-0.563695
-0.112876
-0.223398
-0.168765
-0.228426
-0.150277
-0.34078
-0.341353
-0.436374
-0.0476997
-0.245343
-0.00656911
-0.436342
-0.431352
-0.0172308
-0.514553
-0.278988
0.283135
0.301112
0.319623
0.289428
0.318415
0.237177
0.23514
0.250213
0.258452
0.243585
-1.06051
-0.822547
-1.73637
-1.11219
-0.618876
0.108148
-0.112536
0.492213
0.347466
0.452232
0.418478
0.358069
0.303923
0.309496
0.359752
0.0247863
0.134873
0.0992665
0.125599
0.068476
-0.0104615
0.269138
0.255172
0.302837
0.320985
0.286517
0.321782
0.167879
0.166649
0.164422
0.165265
0.159381
0.156753
0.103195
0.0749767
0.111371
0.0936738
0.0573555
0.0496863
0.0438788
0.0401547
0.0367171
0.0360177
0.0414789
0.0424017
0.195312
0.254533
0.0696107
0.190672
-0.138305
-0.116176
-0.182081
-0.00740798
0.0458678
-0.0700777
0.449247
0.613615
0.549566
0.582406
0.455655
0.495872
0.155601
-0.198618
-0.0821372
0.0821432
0.230763
-0.261799
-0.648571
-0.528831
0.629077
0.548704
0.336166
0.152702
-0.0014929
0.349394
0.171784
0.129313
0.178362
0.246924
0.255952
-0.601344
-0.591613
-0.431667
-0.320302
-0.915648
-0.562932
-0.601935
-0.537981
-0.732814
)
;

boundaryField
{
    wall-4
    {
        type            zeroGradient;
    }
    velocity-inlet-5
    {
        type            zeroGradient;
    }
    velocity-inlet-6
    {
        type            zeroGradient;
    }
    pressure-outlet-7
    {
        type            fixedValue;
        value           uniform 0;
    }
    wall-8
    {
        type            zeroGradient;
    }
    frontAndBackPlanes
    {
        type            empty;
    }
}


// ************************************************************************* //
