/*--------------------------------*- C++ -*----------------------------------*\
  =========                 |
  \\      /  F ield         | OpenFOAM: The Open Source CFD Toolbox
   \\    /   O peration     | Website:  https://openfoam.org
    \\  /    A nd           | Version:  6
     \\/     M anipulation  |
\*---------------------------------------------------------------------------*/
FoamFile
{
    version     2.0;
    format      ascii;
    class       surfaceScalarField;
    location    "7";
    object      phi;
}
// * * * * * * * * * * * * * * * * * * * * * * * * * * * * * * * * * * * * * //

dimensions      [0 3 -1 0 0 0 0];

internalField   nonuniform List<scalar> 
1300
(
3.75095
5.62643
-6.39482
3.75095
-6.25564
5.62643
-4.8281
4.8281
-1.58042
1.58042
1.87896
1.87199
-5.21538
5.21538
-5.335
5.335
-2.95604
2.95604
-5.24656
5.24656
-5.07208
5.07208
4.74279
-4.74279
-5.12711
5.12711
-2.07215
2.07215
-5.78992
5.78992
3.19752
-3.19752
-5.37035
5.37035
-0.648916
0.648916
-0.5471
4.29805
3.20385
3.20385
-2.77323
2.77323
-4.86658
4.86658
6.22042
-6.22042
9.68842
-9.68842
-3.2936
-3.335
1.33584
-8.0696
-4.9198
-4.9198
-8.44068
8.44068
-2.81425
2.81218
3.07226
-3.07226
-0.970316
0.970316
-4.64273
-0.185374
-4.64273
5.16639
-0.338286
5.16639
-1.75505
0.174639
-1.75505
4.06079
-4.06079
1.41414
0.166274
1.41414
3.06091
-3.06091
-1.87481
3.75377
1.87614
-1.86642
6.16447
-1.88454
3.75653
-4.80395
4.80395
-5.37285
0.157465
-5.37285
5.18543
0.0299533
5.18543
-5.31291
5.31291
-5.29799
-0.0370055
-5.29799
5.35618
-0.0211804
5.35618
3.16693
-3.16693
-3.01238
0.056341
-3.01238
2.90225
0.0537845
2.90225
0.353263
5.27317
-5.97969
8.79187
-5.27317
0.0266033
5.20663
0.0399362
5.20663
-5.10709
0.0350112
-5.10709
5.01492
0.0571555
5.01492
4.87601
-0.133221
4.87601
-4.82614
0.0833498
-4.82614
-3.26954
-3.35125
-5.21972
0.0926055
-5.21972
-2.08493
0.0127842
-2.08493
2.06829
0.00385427
2.06829
-3.82834
3.82834
-5.89223
0.102314
-5.89223
3.16691
0.0306144
3.16691
1.8656
1.88536
5.61655
-5.61655
2.41903
-5.37702
0.0066705
-5.37702
-5.4079
-4.28052
5.4079
-0.0375545
-0.952137
0.303221
-0.952137
3.17732
0.0265357
3.17732
2.85519
0.0470679
-2.85519
0.0819591
3.59403
-3.59403
2.11339
0.659836
2.11339
-5.5625
5.5625
4.95894
0.0559795
-4.95894
0.0923592
6.15533
0.065094
6.15533
-6.20548
-0.0149408
-6.20548
3.34455
-6.67955
-3.28702
5.02526
0.101854
-5.02526
0.105458
3.1041
-0.0318412
3.1041
-3.04477
3.04477
-3.0765
0.00423854
-3.0765
-1.70131
0.730994
-1.70131
0.550102
0.420214
0.550102
-4.43045
-0.21227
-4.43045
-5.60355
-0.288679
5.60355
-0.437167
1.97201
-1.97201
-1.87956
0.124502
-1.87956
-4.19642
-0.234035
4.19642
-0.135628
-4.05937
-0.00142294
-4.05937
-3.06242
-0.0140759
3.06242
-0.00151665
3.11964
0.0576762
-3.11964
0.0587362
-1.87196
3.75731
-1.879
3.75514
-4.59592
-0.208032
-4.59592
5.03551
-0.231558
5.03551
5.60657
0.183351
-5.60657
0.23372
5.23429
-0.0488583
5.23429
-5.27346
-0.0394452
-5.27346
5.33442
-0.0215084
5.33442
5.27365
-0.0393607
-5.27365
-0.0243479
5.35818
-0.00199701
5.35818
3.21145
-0.0445216
3.21145
-3.13279
-0.0341383
-3.13279
3.03503
-3.03503
3.02084
0.0141933
-3.02084
0.00846189
-11.1289
11.114
-0.0352819
-11.0936
5.17135
5.17135
4.32691
0.5491
4.32691
-5.01109
0.184956
-5.01109
3.28749
-6.57451
3.28217
-6.55171
3.37277
-11.4424
3.30572
-6.65698
5.29295
-5.29295
5.27443
0.0185224
-5.27443
0.0547145
-2.08654
0.00160639
-2.08654
-3.59461
-0.233726
-3.59461
4.11026
-0.281922
4.11026
-3.03837
3.03837
-3.07382
0.0354498
3.07382
0.0930926
5.36705
-0.00886952
-5.36705
-0.00996905
1.20576
0.208378
-1.20576
0.253627
3.75669
-0.162665
3.75669
-3.3789
-0.215126
-3.3789
-2.07251
-0.0140308
2.07251
0.0408829
-5.81047
0.24797
-5.81047
-11.187
0.0933589
-11.147
-6.11212
-6.11212
2.32856
11.1204
-3.12845
-0.00434318
3.12845
-0.0243487
3.03123
0.00713503
-3.03123
-0.0135365
-3.04191
0.00687449
3.04191
0.00285825
-2.34911
0.647805
-2.34911
-0.871771
0.871771
-0.531805
-0.339966
0.531805
0.0182972
2.44086
-0.468853
2.44086
1.99551
0.0727849
-1.99551
0.115953
-4.00493
-0.0544363
-4.00493
5.2144
-0.178893
5.2144
-3.26178
-0.117122
3.26178
-0.0503261
-0.0319713
11.1459
-5.13937
0.0322879
5.13937
-11.211
11.2433
-3.20551
0.856397
3.20551
1.1214
5.2834
0.279105
-5.2834
0.272304
5.31838
0.0160413
-5.31838
0.0254244
-3.40402
-0.190588
-3.40402
-4.37602
-0.2199
4.37602
-0.265759
-11.4804
-0.199977
11.6803
-11.4232
6.01045
0.144877
-6.01045
11.3882
-1.45491
-0.517103
1.45491
-0.583135
2.82277
-0.381907
2.82277
3.95871
-0.202015
-3.95871
-0.0462262
-5.25691
-0.0165549
5.25691
-0.0425077
-3.18531
-0.218712
3.18531
-0.362542
-4.28361
4.31014
1.88086
-3.33812
-3.34144
-7.61864
1.86285
1.89446
4.28188
-7.06235
-4.38002
-6.95689
7.23792
-6.96561
-9.37687
9.24365
7.43897
-7.4404
-5.71542
5.80851
6.35354
-6.35506
1.8532
1.90057
10.6964
-10.5389
-10.3572
10.1491
10.2358
-10.2728
10.6753
-10.7147
-12.2753
12.2913
-5.70623
5.76257
-6.62793
6.59379
-6.75548
6.70516
-3.33183
-3.21988
9.01391
-8.9213
11.7381
-11.7314
-11.0727
11.175
3.33907
0.971079
3.39674
-1.88944
3.74263
-1.86709
3.74796
3.24756
-6.57939
3.32695
-6.66839
6.05269
5.6854
-6.01513
-1.6035
-5.88919
5.85735
-5.81558
5.81844
8.27396
-8.45934
-1.88809
3.78866
-1.86705
3.76151
-3.37571
-2.33971
3.3451
0.936779
5.57275
3.44116
-5.6746
-1.28229
-7.53427
7.33226
-7.82315
7.60802
-0.444928
5.83506
-5.39013
4.42165
-1.62268
7.45774
5.61524
5.80019
5.86856
-5.58945
1.09706
-6.48719
-6.39483
-2.66397
2.78847
2.64589
-2.47961
5.76531
1.67366
5.62968
-5.52674
-1.91366
-5.58118
3.83259
1.97592
3.86804
4.04646
2.30709
4.03238
3.05732
-3.03421
-0.0231145
-3.11304
6.17036
0.754456
-5.45275
-4.51597
6.92724
3.76914
6.9572
-7.28329
-3.25563
-7.04957
-6.218
-4.13917
-6.4379
6.64164
3.5075
6.41008
-7.8285
7.786
6.78956
3.44626
6.76838
-6.84313
-3.4297
-6.86748
10.3817
-2.68584
-7.69586
-6.88884
-5.38644
6.91035
3.76493
7.46286
4.82845
7.48829
3.5548
6.8269
-7.31973
1.93329
-3.83151
-1.87472
-3.82305
3.71437
2.0482
3.76815
-4.1709
-2.45703
-4.17524
-4.19621
-2.55927
4.24073
2.35306
-4.24652
-3.57663
4.36364
2.34151
3.03233
-7.41235
3.62465
-6.84453
-6.25201
-2.66929
-6.1973
3.9804
2.71627
-6.69667
-2.59899
10.8709
-5.18549
9.26738
-7.29106
-4.44036
-7.30103
-8.08712
-2.98554
-8.3758
-5.75547
5.56488
-5.84577
5.56384
10.6652
-5.45315
-5.21208
-3.86296
-2.4921
3.80423
-0.407487
-3.80297
3.77985
-0.0603368
3.68762
4.6587
4.25121
-3.86952
-1.94607
-3.88305
3.82986
1.98858
3.83673
7.09981
1.17415
6.76153
-5.97867
-2.48067
-6.19094
9.23088
-8.49989
2.95495
-2.96898
5.03482
2.5732
-4.87215
-2.66212
5.92221
-2.87701
-3.0452
-12.348
10.7287
1.61931
-4.89025
-0.468601
0.180314
-5.57419
-3.80267
5.49084
0.309346
11.038
7.23536
-5.51517
5.76314
6.16516
6.22114
-0.173684
6.08564
-5.22924
5.39119
-2.6083
-2.7829
5.01207
-5.24611
-1.17887
-5.09691
3.91804
0.383576
1.87581
-1.57259
-2.17113
-0.492839
-2.05518
1.61517
1.03072
1.82355
0.991704
1.79677
-2.85243
0.508207
2.34422
-1.86073
-1.9714
-3.46184
-1.13413
4.59597
5.37601
1.95625
-5.32978
-0.251395
2.82236
-2.81851
-0.715943
-2.7459
2.05748
-2.77343
-3.43174
-1.81328
5.24502
-3.36802
-0.515034
3.36088
0.507153
-3.777
-2.11219
3.77276
0.25962
-3.04048
6.10834
-3.06787
-4.98654
2.57413
3.59623
4.55006
-4.84598
2.47797
2.368
-1.24975
6.03639
0.92081
5.98753
-9.24394
5.98831
7.65405
3.52093
-7.8374
0.787831
-8.45611
9.5423
-8.22205
-1.32025
4.93285
4.60945
5.18205
5.48317
-3.93276
9.11481
-0.91712
-7.30493
9.37323
-5.85231
5.42407
-11.2764
-10.9072
3.6023
-6.93115
8.51628
-1.58514
-2.39007
-5.43843
9.32122
-0.792751
-8.52847
5.61733
-5.29616
-5.27647
10.5726
-7.982
8.70618
-2.61172
-6.09446
-6.6479
-4.06682
6.66445
1.12155
-9.83991
11.7732
-3.01301
5.88525
0.883137
5.88325
3.88165
-6.00651
2.12485
4.10035
-6.71207
2.547
-8.55351
-4.76248
9.38174
-4.61926
-7.43177
-6.6138
-0.817974
2.02425
9.74895
-6.8527
5.30428
1.54842
3.32901
0.507726
-3.3432
-0.479851
0.335107
4.39126
-4.72637
4.10326
4.15033
3.22662
1.16464
3.83359
2.02376
-3.80924
-0.365999
-3.99506
1.43579
-1.642
-3.3093
4.74508
-3.79043
0.48114
-2.62533
-3.47053
6.09586
-4.50005
3.05444
3.0539
5.04302
-4.73225
1.26172
-2.32514
-2.40711
2.52872
-4.17072
1.80569
2.93939
4.1472
0.570579
4.69881
4.68293
-7.41508
0.570555
8.12408
-6.84179
1.6342
5.85409
-6.93848
0.324684
-5.87261
1.15534
-6.34082
-5.54133
5.71423
-8.69976
-5.56214
7.20402
-0.442494
-6.76685
-1.60895
-3.96473
-1.79075
-4.18344
-1.78242
-4.06335
-5.71518
-1.26781
-4.44737
4.29707
-4.3777
-2.0602
4.64346
0.920382
-5.36547
4.84836
-4.94123
4.55932
0.0885406
3.69131
4.33975
1.84766
-2.44157
4.28922
-5.14306
6.31721
-6.5308
1.38774
3.33259
-5.81325
-3.19822
4.73406
4.49682
5.15427
7.55119
-12.6871
5.13591
-9.61972
9.08101
0.53871
-14.031
4.41127
-6.4798
2.75266
0.202288
2.75427
0.689312
2.31363
-3.00294
-2.27967
-2.23879
-2.15644
-3.20894
5.36538
1.00448
-3.19266
2.18818
-3.28387
4.28834
-0.0458269
-3.14683
5.16296
-2.84933
5.36525
-3.32969
2.03556
3.07288
5.30327
-2.23039
4.22781
-1.65461
1.64325
-3.87363
-1.5657
-2.96225
5.01046
-3.1336
3.61474
-0.28409
3.89883
-3.83282
0.955805
-0.606201
3.54413
3.62609
4.18657
-3.02193
2.73226
-4.38688
-1.14137
-3.8163
-0.876905
-3.29097
-3.60223
6.8932
5.63486
-8.92583
-6.22272
10.1512
-3.92851
7.98916
-5.82524
-2.16392
-4.38102
-4.11887
3.73321
2.35243
10.3416
0.0224594
-5.8477
-5.20678
-4.08539
2.80114
2.59006
-1.93227
3.55158
1.75196
0.123854
0.604792
1.21876
1.84237
-1.23758
0.100207
1.74216
-1.47238
2.11974
0.702625
-2.19252
0.137348
-1.33769
3.39517
1.00653
-2.03725
0.799672
0.892715
-3.50101
4.63576
-2.41048
-2.22527
5.52847
0.987379
-3.39786
4.10953
-3.72596
2.04833
-3.18246
-1.34953
-5.07549
-3.40183
-2.30668
4.49486
-3.0587
5.01495
1.06312
-4.76356
5.82668
-3.29571
1.48243
-2.97673
3.67936
-0.99263
-1.9841
2.6459
2.59912
-2.81804
0.07214
-0.172136
2.18595
-2.35809
-0.587473
-2.4482
-4.55748
4.8171
-2.03883
4.5168
2.25039
-1.92364
6.44044
1.80567
-3.72931
-3.18087
-3.69591
-1.3613
3.18875
-0.968519
-5.89896
-7.06297
5.93832
0.0492091
-9.1131
10.258
-1.14492
-5.34396
-0.644355
5.57721
-7.4656
0.753536
-4.9186
5.33942
6.26023
6.30944
-8.39203
-0.136439
-4.88453
1.23336
-6.11789
5.8428
-2.97958
6.58188
-7.05562
4.99542
-6.13524
5.26163
-0.856252
5.58387
-3.45902
2.11199
-6.17881
-5.05727
6.96496
-3.5187
7.8481
-4.04093
11.889
-7.05394
6.90952
4.9795
-1.38079
-5.92024
-6.86366
5.48287
0.0458576
5.92911
4.81518
-2.79142
4.44918
2.17857
-4.50371
-1.99215
-6.33997
1.83626
-3.28606
-1.83706
3.67332
3.20596
3.71369
1.26621
-3.23384
6.5474
-7.36537
-1.92814
-3.61319
6.76746
-1.28459
4.01372
-7.62691
-2.3271
5.82036
-1.49372
-4.32664
-0.367216
-5.19493
3.38786
-8.58279
5.3119
-6.92085
1.84215
-8.32195
-3.52332
-4.10646
-1.70819
-3.23304
-5.55775
3.84956
-1.14648
3.70189
-6.76661
5.27289
-2.3144
6.16396
-3.48051
-0.702931
3.84305
0.71627
6.88023
0.538967
-3.73718
-2.69722
4.09249
-1.39527
0.103921
-3.06327
1.02922
2.28773
3.24074
-6.20578
0.392522
-3.34466
-3.23515
7.73198
6.91607
12.5509
-0.136175
9.13107
-1.39909
8.9949
3.75518
3.77348
-2.34915
7.48506
4.54405
5.9318
-0.840395
2.87595
1.91387
1.92666
0.891853
2.21446
1.41163
3.17026
0.167323
-2.07146
4.83456
-8.91995
-1.01313
-8.37085
0.872793
5.65401
-4.78122
3.59207
-1.00201
2.19679
-0.0635715
-2.08408
2.14765
-2.84647
-1.96022
-0.21806
-1.56286
2.36253
1.83231
-2.14447
-0.701996
0.281574
-3.6834
2.90089
-2.82875
-0.229625
5.59705
-2.58315
0.225058
-1.10072
-2.22314
-2.71598
2.57863
6.1297
0.31074
3.06183
5.12784
3.01565
0.224229
4.44475
-6.02988
-4.10877
-6.16632
-0.323518
5.25369
2.03107
7.71789
7.01057
5.72598
-1.90093
-9.2663
6.88538
0.599682
7.42409
-3.09745
-5.48534
5.70512
0.612087
-5.26263
-1.65822
-7.14357
-6.54388
-0.49529
5.76818
-6.38494
5.68201
3.89127
0.556101
-3.34027
-0.766183
3.68024
0.0932383
9.08813
-0.932812
-7.15136
8.08417
-4.7212
3.70807
0.77223
2.77935
2.91988
1.91787
-5.23349
-10.0147
-1.92916
-1.57185
-4.15443
0.441537
-2.27385
6.5174
-2.80934
4.35348
5.27483
7.47163
-3.14531
-5.78052
7.07382
-2.72034
4.75129
)
;

boundaryField
{
    wall-4
    {
        type            calculated;
        value           uniform 0;
    }
    velocity-inlet-5
    {
        type            calculated;
        value           uniform -3.75095;
    }
    velocity-inlet-6
    {
        type            calculated;
        value           uniform -5.62643;
    }
    pressure-outlet-7
    {
        type            calculated;
        value           nonuniform List<scalar> 8(6.39482 6.25564 6.6286 6.73376 6.6208 6.63157 6.56966 6.6785);
    }
    wall-8
    {
        type            calculated;
        value           uniform 0;
    }
    frontAndBackPlanes
    {
        type            empty;
        value           nonuniform 0();
    }
}


// ************************************************************************* //
