/*--------------------------------*- C++ -*----------------------------------*\
  =========                 |
  \\      /  F ield         | OpenFOAM: The Open Source CFD Toolbox
   \\    /   O peration     | Website:  https://openfoam.org
    \\  /    A nd           | Version:  6
     \\/     M anipulation  |
\*---------------------------------------------------------------------------*/
FoamFile
{
    version     2.0;
    format      ascii;
    class       volVectorField;
    location    "7";
    object      U;
}
// * * * * * * * * * * * * * * * * * * * * * * * * * * * * * * * * * * * * * //

dimensions      [0 1 -1 0 0 0 0];

internalField   nonuniform List<vector> 
918
(
(0.985646 -0.00231693 0)
(0.00524515 2.96629 0)
(0.000652903 1.70179 0)
(0.978573 0.00457538 0)
(-0.00520224 1.66631 4.6304e-22)
(-0.00704696 2.94864 -2.16389e-18)
(0.952672 1.22886 6.39504e-19)
(0.526336 0.281912 -9.42133e-21)
(1.00008 -0.000772398 0)
(0.0542703 1.55649 0)
(-0.00736202 1.60316 0)
(0.884964 0.00486205 0)
(0.0109358 2.93059 0)
(0.000529661 2.79694 0)
(0.00337637 3.20202 1.03321e-18)
(0.00507125 1.61421 -2.0944e-20)
(0.656965 0.130891 5.54495e-19)
(0.264762 1.82403 5.51733e-19)
(0.981747 0.0247592 0)
(0.000802861 1.61633 0)
(0.228297 0.314948 -5.33967e-19)
(0.999301 -0.00345259 0)
(0.999668 -0.00725755 0)
(0.965559 -0.00050313 0)
(0.836559 -0.0272499 0)
(0.0132297 2.64352 0)
(-0.0129004 2.9117 7.62731e-19)
(-0.00663613 1.71299 0)
(-0.000730574 1.7684 0)
(0.00140331 1.73131 0)
(-0.00407591 1.79619 0)
(-0.00364922 1.68665 -3.67045e-22)
(-0.00613402 1.62054 0)
(-0.0217266 2.98765 -7.68298e-23)
(-0.0165084 3.00534 1.68e-18)
(0.00224842 3.00033 0)
(0.924915 0.00629118 0)
(0.12316 0.50487 -2.0118e-19)
(0.876452 1.30213 -8.2823e-19)
(1.02766 1.06675 8.56451e-19)
(0.750813 1.48041 -1.4042e-19)
(0.847869 1.42494 8.11416e-19)
(0.579851 0.340752 9.19272e-21)
(0.581145 0.240372 0)
(1.2086 0.531332 0)
(0.531021 0.343866 4.33191e-20)
(0.508377 0.272967 -4.4943e-20)
(0.924001 -6.26199e-05 0)
(0.998899 -0.000573043 0)
(0.999935 -8.82152e-05 0)
(0.998137 -0.00769789 0)
(1.00153 -0.00287299 0)
(1.00058 -0.00106239 0)
(0.0302875 1.55691 -5.27935e-19)
(0.047467 1.68343 0)
(0.124912 1.5875 0)
(-0.00264422 1.65781 0)
(0.00233743 1.52478 0)
(-0.000842152 1.6221 0)
(-0.0155101 1.67057 0)
(-0.0154631 1.58775 0)
(-0.00550043 1.69111 0)
(0.00136908 1.60647 0)
(0.951008 0.0189224 0)
(0.942696 0.00864903 0)
(0.90413 -0.00273439 0)
(0.930473 0.0222624 0)
(0.865141 0.0285135 0)
(0.0139188 3.00033 7.96659e-19)
(0.0110992 3.00715 0)
(0.00575098 3.00334 0)
(0.0123872 2.99744 8.94504e-24)
(0.00803402 2.95857 -1.18403e-18)
(0.0132512 2.98162 0)
(0.0105221 2.90256 0)
(0.022554 2.93154 1.70362e-24)
(0.00198638 2.82579 0)
(0.028457 2.91828 0)
(-0.00608664 2.74762 0)
(0.334073 3.63052 0)
(-0.118978 3.71689 0)
(0.167061 3.2928 -9.61671e-19)
(-0.0062819 3.00788 0)
(-0.00929632 1.76357 0)
(-0.0012229 1.69778 2.06635e-20)
(-0.00519649 1.6365 -2.22718e-20)
(0.705924 0.171623 -1.90217e-19)
(0.677969 0.0854708 -1.82746e-19)
(0.702305 0.193686 -5.73213e-19)
(0.660633 0.147669 -3.86375e-19)
(0.244635 1.32139 0)
(0.333241 1.89385 -6.19305e-19)
(0.513489 1.83486 1.00294e-18)
(0.994401 0.0174831 0)
(0.949947 0.0334183 0)
(1.00059 0.000647263 0)
(1.00098 0.0110953 0)
(1.00533 0.0195423 -9.43675e-19)
(0.986685 0.00841833 7.22004e-19)
(-0.0036303 1.68729 0)
(0.00313802 1.62335 0)
(-0.00320169 1.73483 0)
(-0.00911636 1.6968 0)
(-0.000411984 1.62572 0)
(0.322751 0.327454 1.65695e-19)
(0.344471 0.306612 0)
(0.988464 0.00222095 0)
(0.970899 0.00648079 0)
(0.896589 0.0230866 0)
(0.889587 0.00536116 0)
(0.857556 -0.00569094 0)
(1.07585 0.011289 0)
(0.855953 0.0277949 0)
(0.766984 0.0364084 7.20179e-19)
(-0.0389865 2.86039 5.03801e-19)
(0.0381916 2.91239 0)
(0.046142 2.89052 0)
(-0.00335324 2.70252 0)
(-0.00902704 2.98503 7.17823e-19)
(-0.0144876 2.89424 0)
(-0.0111553 2.99027 -2.23442e-18)
(-0.0118851 2.92826 7.66666e-19)
(0.00169922 1.78291 0)
(0.0034847 1.769 0)
(0.00699061 1.69366 -6.65087e-22)
(0.00492766 1.68879 0)
(0.00868183 1.61169 0)
(0.968643 0.0101475 0)
(0.933069 0.0118644 0)
(0.91577 -0.0148873 0)
(0.967336 -0.00058618 0)
(0.920122 -0.0139404 0)
(0.196733 0.832667 2.45999e-19)
(0.314845 1.0137 0)
(0.21047 0.420295 -3.30498e-20)
(0.189299 0.0663349 0)
(0.971591 1.12773 -2.48388e-19)
(1.09655 0.880832 5.29501e-19)
(0.48343 1.83579 0)
(0.61961 1.67634 0)
(0.724339 1.65061 0)
(0.450963 0.635603 -3.05662e-19)
(0.631824 0.291875 0)
(0.611505 0.216626 1.12336e-19)
(1.05121 0.950254 0)
(1.11387 0.764136 0)
(1.14415 0.708133 -4.92473e-19)
(1.20259 0.592803 0)
(1.25782 0.408461 5.899e-20)
(0.971616 -0.0017749 0)
(0.957594 0.00229021 0)
(0.9219 0.00729714 0)
(0.988735 0.00306919 0)
(0.965436 -0.00028895 0)
(0.943835 0.00303422 0)
(1.0015 0.00296032 0)
(1.00021 0.000302287 0)
(1.00001 0.000834697 0)
(0.0172992 1.59321 2.82691e-19)
(0.0473486 1.51466 0)
(0.0163396 1.63663 4.82632e-19)
(0.0239922 1.60053 -4.19813e-19)
(0.172695 1.836 -4.57434e-19)
(0.054985 1.7265 0)
(0.165767 1.71126 0)
(-0.0190757 1.6593 0)
(-0.00267322 1.5514 0)
(-0.000704516 1.68013 -1.32288e-21)
(0.000502798 1.61298 0)
(0.000357112 1.69396 -6.64493e-20)
(0.00127965 1.62442 1.28103e-19)
(-0.00662647 1.67667 0)
(-0.0141062 1.67122 0)
(0.00170883 1.58125 0)
(0.0043638 1.69069 0)
(0.0132985 1.60469 0)
(1.01129 0.00854182 0)
(0.965364 -0.00852681 0)
(0.985585 0.0152727 0)
(0.944975 0.0127255 0)
(0.907403 0.00633542 0)
(0.955094 0.0110126 0)
(0.954668 -0.00253957 0)
(0.907981 -0.00532106 0)
(0.0095487 3.06475 -7.1777e-21)
(0.0139925 3.0568 0)
(0.0126105 2.96807 0)
(0.00731119 2.87507 0)
(0.921095 4.04995 0)
(1.20789 3.43351 1.01849e-18)
(0.0775817 3.09238 0)
(-0.0286307 2.91328 0)
(0.00552164 1.75046 0)
(-0.00163534 1.74649 0)
(-0.00129675 1.75072 0)
(-0.00912104 1.79039 4.97539e-21)
(-0.0112168 1.77623 0)
(-0.00840213 1.78031 0)
(0.0023421 1.61822 2.17652e-21)
(0.00438485 1.69095 4.07003e-20)
(-0.00920756 1.69693 2.29618e-20)
(0.000933937 1.62379 0)
(0.740421 0.119169 2.77274e-19)
(0.69141 0.0362764 -2.68516e-19)
(0.20211 1.3999 0)
(0.30924 1.24597 -2.38472e-19)
(0.149181 1.4421 -6.97777e-19)
(0.174641 1.37246 6.95952e-19)
(0.899175 0.00770031 0)
(0.968662 0.010806 0)
(0.977773 0.0312774 0)
(0.92824 0.0255617 0)
(0.00764657 1.68758 0)
(0.000946708 1.69187 0)
(0.00359518 1.61712 0)
(0.483079 0.363028 4.05695e-19)
(0.419632 0.3633 -5.08529e-19)
(0.449372 0.274501 0)
(1.19046 0.0809117 -5.99154e-21)
(1.17356 0.030851 0)
(1.09926 0.0471029 0)
(1.01462 0.00874027 0)
(0.754453 0.0875657 0)
(0.773902 0.0901779 -1.15655e-18)
(0.715925 0.0411004 4.39902e-19)
(0.0106114 2.97885 5.72797e-19)
(-0.0313935 2.86267 4.71419e-20)
(0.00906897 3.05174 -1.53244e-20)
(0.016399 3.04322 5.80744e-19)
(-0.0123326 2.99907 2.54089e-20)
(-0.0134421 2.952 -1.0259e-22)
(-0.0156157 3.01268 -4.81021e-19)
(0.0152392 3.02485 3.38626e-19)
(0.00778088 3.03517 -5.47516e-19)
(0.989395 0.00913239 0)
(0.985654 0.00675984 0)
(0.939913 0.0062577 0)
(0.957197 0.00736978 0)
(0.961139 -0.0117252 0)
(0.910527 -0.0111361 0)
(0.960558 0.00575605 0)
(0.958938 -0.00690236 0)
(0.912032 -0.00827301 0)
(0.483467 1.31558 3.76834e-19)
(0.576488 1.48149 0)
(0.226677 0.0539232 2.233e-20)
(0.448249 0.469937 -1.11175e-19)
(0.364715 0.392196 2.10728e-19)
(0.149314 -0.0416679 -4.82142e-19)
(0.440319 0.984525 1.53466e-18)
(0.47552 0.864207 3.429e-19)
(0.68637 0.245328 4.20895e-19)
(0.644933 0.276611 1.02633e-19)
(0.626908 0.201992 2.15208e-19)
(1.24937 0.439192 3.2532e-19)
(1.27791 0.238093 3.41018e-19)
(0.00992965 1.67732 1.94982e-19)
(0.0038977 1.63594 0)
(1.04368 0.0245688 0)
(1.00931 0.00833308 0)
(0.986553 0.00304973 0)
(0.0101324 3.07528 0)
(0.0173767 2.9442 9.82008e-19)
(0.0138184 2.95582 0)
(0.00440467 2.84998 -9.75099e-19)
(0.00817925 3.09165 2.37029e-19)
(0.0111309 3.08039 0)
(0.609978 1.80427 -2.2388e-19)
(1.24408 2.68002 7.44505e-19)
(0.622454 2.009 -1.59907e-18)
(0.0197127 2.98047 -4.66765e-19)
(0.0368414 3.00267 0)
(-0.0413058 2.87479 0)
(-0.00325906 1.68281 -7.6495e-21)
(-0.00389548 1.69093 -9.05429e-20)
(-0.00454624 1.62331 -6.64888e-21)
(0.256838 1.34623 7.60255e-19)
(0.360227 1.21544 -5.18864e-19)
(0.036032 1.56502 4.63794e-19)
(0.0901416 1.51275 -5.64366e-19)
(0.105073 1.46177 6.85019e-20)
(0.00737988 3.11848 -1.27676e-18)
(0.0139156 3.1198 1.40498e-18)
(-0.00514941 2.97959 6.50993e-19)
(-0.00144519 2.97483 -6.04284e-19)
(-0.0184709 2.87793 -6.63054e-19)
(0.0120551 3.09848 -1.74455e-18)
(0.00393729 3.10585 1.76692e-18)
(0.503982 0.851472 0)
(0.534788 0.654216 -6.87709e-19)
(0.389288 0.34118 3.3248e-19)
(0.428181 1.12037 1.00588e-18)
(0.452568 1.02026 -1.55004e-18)
(1.26081 0.17986 -6.01796e-20)
(1.2832 0.29951 0)
(1.26564 0.130373 1.33249e-19)
(-0.0112375 1.6915 -1.61318e-21)
(-0.0124023 1.69471 0)
(-0.0110243 1.62915 0)
(0.312699 1.31716 -2.69765e-19)
(0.378185 1.22109 -6.36927e-19)
(0.414714 1.15799 1.15474e-18)
(1.00808 -0.0249793 0)
(0.999279 -0.00778977 1.78971e-19)
(-0.000572755 1.78068 0)
(-0.00913385 1.78953 0)
(1.00078 -0.000833691 -1.49454e-21)
(1.00865 0.00212188 3.54269e-19)
(-0.00431431 1.79022 -6.47953e-21)
(-0.00511624 1.79301 0)
(0.0526702 3.18217 2.80053e-19)
(0.409153 3.55285 0)
(1.12136 0.69319 6.74133e-20)
(1.00439 0.00566999 -3.741e-21)
(1.00137 -0.000128844 0)
(1.00189 -0.00720285 -9.66046e-22)
(0.0536857 1.84349 0)
(0.0596156 1.73003 0)
(0.00155672 1.7984 0)
(0.0137549 1.78051 8.71145e-20)
(-0.000861039 1.7767 4.66394e-20)
(0.99831 0.0232076 2.05583e-21)
(1.04017 -0.00297901 0)
(1.06741 0.0304851 0)
(0.00774 1.74998 0)
(0.00558742 1.77896 0)
(0.000469181 1.79123 0)
(0.181731 1.90465 -2.14906e-19)
(1.00958 -0.0280994 0)
(1.00151 -0.0309539 0)
(1.0069 -0.00239945 2.24594e-19)
(0.997458 -0.00459107 -2.7222e-19)
(1.00168 -0.00168386 0)
(0.0108041 1.74641 0)
(-0.000216255 1.7768 0)
(0.00936674 1.75416 0)
(-0.00434614 1.79456 0)
(-0.00751834 1.78929 0)
(-0.0085122 1.79322 0)
(1.02237 -0.00209768 0)
(1.0151 0.00918034 -5.23577e-22)
(0.652294 1.21973 4.1606e-19)
(1.00156 -0.00204972 -2.23588e-19)
(0.998089 0.00366785 2.65912e-19)
(1.00128 0.00427583 0)
(1.00336 0.00670671 2.1662e-19)
(1.00177 -0.00162068 -2.73873e-19)
(0.991538 -0.00603255 0)
(0.00307932 1.78789 0)
(-0.00381919 1.79417 1.83868e-20)
(-0.00818994 1.78928 -1.43786e-20)
(1.14427 0.258541 -5.46959e-20)
(1.09862 0.082233 0)
(0.0521847 3.09348 -6.93199e-19)
(0.0498465 2.86535 -5.16428e-20)
(0.113098 3.19438 9.28124e-19)
(0.113893 3.20521 -1.32933e-19)
(0.154797 3.24524 0)
(0.0198636 3.14183 1.742e-19)
(0.0691905 3.16026 6.85637e-19)
(0.0651915 3.18093 -3.30623e-19)
(0.0266474 3.13015 0)
(0.699463 0.34819 0)
(0.621424 0.390036 0)
(1.05109 0.674442 -2.25951e-19)
(1.01009 0.816796 3.41009e-19)
(1.12201 0.573742 0)
(1.13737 0.576327 0)
(1.01419 0.00390651 -4.28603e-19)
(1.02014 0.00206845 5.30815e-19)
(1.01164 0.00200093 0)
(1.0169 0.00787893 0)
(1.0207 -0.00561873 0)
(1.01986 0.013534 0)
(1.02024 -0.00853641 0)
(1.01964 0.0193433 0)
(1.01387 0.0136594 0)
(1.01136 0.0055521 0)
(0.0459968 1.83355 0)
(0.0142311 1.82898 0)
(0.0836516 1.87552 0)
(0.052603 1.88834 0)
(0.0492391 1.71318 0)
(0.0323885 1.70091 -3.05395e-19)
(0.0661807 1.74285 0)
(0.0650706 1.73985 1.555e-19)
(0.00652241 1.75274 -1.69929e-19)
(0.00101971 1.79763 0)
(-0.00115689 1.79554 0)
(0.000578441 1.80405 0)
(-0.00105797 1.81815 0)
(0.00484623 1.77604 -5.45093e-20)
(-0.00169056 1.78047 6.20425e-20)
(0.00706013 1.78646 8.21208e-20)
(0.00295039 1.7847 0)
(-0.000180148 1.77905 -1.09611e-19)
(0.0026449 1.77658 -6.60365e-20)
(0.00315832 1.77232 4.36642e-20)
(-0.00686574 1.77337 -8.47559e-20)
(0.00210728 1.78087 -9.90177e-20)
(1.00473 0.0164593 3.924e-19)
(1.0104 0.00643352 -4.87687e-19)
(1.00387 0.0184782 -4.2567e-19)
(0.985563 0.011399 5.34206e-19)
(1.04072 0.00848348 0)
(1.04508 -0.0068225 0)
(1.05869 0.0309859 0)
(1.04406 0.00190945 0)
(1.06439 0.0148803 0)
(1.07936 0.0663547 0)
(1.07518 0.0343525 0)
(1.08928 0.039102 0)
(-0.00171673 1.78674 -2.02426e-21)
(0.0153878 1.75122 0)
(-0.00237721 1.7736 0)
(0.00695826 1.78002 1.72809e-20)
(0.0117789 1.779 -8.02394e-22)
(0.0127171 1.7486 2.31208e-20)
(0.00563932 1.75229 -2.34088e-20)
(-0.00442529 1.7834 0)
(-0.00197577 1.78228 0)
(-0.00252551 1.77826 0)
(-0.00395756 1.78952 0)
(-0.00765965 1.78509 0)
(0.291004 1.88922 3.65191e-19)
(0.274719 1.87759 1.79955e-19)
(0.303384 1.60477 -1.87772e-19)
(0.157935 1.63261 4.65722e-19)
(0.22266 1.72041 1.20591e-19)
(0.999064 -0.00439834 0)
(0.992924 -0.0295246 0)
(0.985823 -0.0278492 0)
(1.03099 -0.0126071 0)
(1.00732 -0.0173372 0)
(0.99998 -0.0164293 0)
(0.994772 -0.0174067 0)
(0.995141 -0.00424757 0)
(1.01677 0.00658965 3.91558e-19)
(1.02336 0.00475669 -4.90514e-19)
(1.01454 0.00858091 -3.79259e-19)
(1.01407 0.00257562 4.80656e-19)
(0.647563 1.36843 0)
(0.506546 1.52155 3.99025e-19)
(0.767828 1.13473 2.55625e-19)
(0.805385 1.1381 -3.41674e-19)
(0.926829 2.70417 -1.13876e-18)
(0.83224 0.110269 2.7811e-19)
(1.1034 0.0830435 0)
(1.13136 0.169862 4.63912e-20)
(1.16336 0.137618 4.40503e-21)
(0.973315 0.106571 0)
(0.0942641 3.01149 1.68646e-19)
(0.0954873 2.90211 -8.24495e-19)
(0.0299006 2.37046 5.55669e-19)
(0.180161 0.153082 -2.56185e-19)
(0.369363 3.44436 -3.66916e-19)
(0.192326 3.31503 0)
(0.246388 3.37443 4.77933e-19)
(0.228846 3.0486 -7.45458e-19)
(0.274545 3.16949 0)
(0.00604189 3.12206 3.62079e-20)
(0.0182777 3.12983 -4.32275e-19)
(0.0155685 3.1257 6.36255e-19)
(0.0352493 3.13893 0)
(0.0330908 3.15028 0)
(1.14947 2.65302 0)
(0.628861 0.805136 -2.36883e-19)
(0.9261 0.983813 -1.87492e-19)
(0.898911 1.00541 0)
(0.771847 0.943057 9.1505e-20)
(0.999432 0.870606 2.96948e-20)
(0.424811 0.4536 -6.56075e-19)
(0.725106 0.331116 -2.17248e-20)
(0.738907 0.31665 2.11069e-19)
(0.62505 0.424618 1.90871e-20)
(0.572133 0.432815 -7.91634e-19)
(0.69364 0.364659 0)
(0.689243 0.424517 3.59648e-19)
(0.683694 0.416771 0)
(0.645572 0.414124 0)
(0.66503 0.377209 0)
(0.772973 0.557356 1.09103e-19)
(1.15762 0.265821 5.45808e-20)
(1.14313 0.405551 0)
(1.19336 0.38438 0)
(0.798317 0.22117 3.34408e-19)
(0.774622 0.525 -1.79973e-19)
(0.717782 0.461731 2.86798e-19)
(0.887309 0.408267 -2.65353e-19)
(1.02526 -0.00287402 2.68534e-19)
(1.02304 -0.00217936 -2.81887e-19)
(1.02453 -0.000882312 0)
(1.02166 0.00401701 0)
(1.01563 0.00924817 -2.55037e-19)
(1.02112 -0.00317659 2.53928e-19)
(1.01127 -0.000864341 0)
(1.00672 0.00381658 0)
(1.02176 0.0113019 0)
(1.0235 -0.00263135 0)
(1.02618 0.00994438 0)
(1.02348 0.00920996 0)
(-0.00460615 1.83178 0)
(-0.00907562 1.83068 0)
(0.118597 1.85524 1.52737e-20)
(0.183261 1.90235 1.17408e-19)
(0.0810342 1.91651 2.66612e-19)
(0.0958493 1.91909 -4.32409e-19)
(0.113295 1.8705 0)
(0.109685 1.76289 -9.74338e-20)
(0.114715 1.76568 0)
(0.215686 1.71367 -1.73911e-19)
(0.181569 1.68253 5.52728e-19)
(0.126428 1.79324 8.89265e-20)
(0.178639 1.86088 4.33576e-20)
(0.144406 1.8589 -3.48866e-20)
(0.225271 1.79242 -1.03402e-19)
(0.174589 1.76023 0)
(0.177971 1.74479 9.97499e-20)
(0.00396307 1.7676 -4.757e-20)
(0.0198591 1.74982 0)
(0.0517347 1.74946 1.85667e-19)
(0.0163812 1.74453 0)
(0.0568114 1.74998 -1.80789e-19)
(0.0369275 1.74881 0)
(-0.00211166 1.76255 -4.13163e-20)
(0.00181494 1.76687 0)
(-0.00219081 1.76947 0)
(-0.00134909 1.76178 4.7565e-20)
(0.0106247 1.77953 8.08386e-22)
(-0.00185309 1.76561 1.93297e-19)
(-0.000111692 1.77241 1.3111e-21)
(-0.00957787 1.76582 3.74254e-20)
(-0.00763899 1.76515 2.32161e-20)
(-0.000488463 1.79262 0)
(-0.000922145 1.79013 0)
(0.0144203 1.78158 1.17572e-19)
(0.00456244 1.76836 7.85928e-20)
(0.00496696 1.7707 -1.12626e-19)
(0.0266902 1.7832 0)
(0.000779424 1.75537 -6.60109e-20)
(0.00266326 1.76287 3.01806e-20)
(0.00135432 1.76574 -9.14924e-21)
(-0.0113424 1.76958 -4.53458e-20)
(0.00096042 1.77665 -1.4482e-20)
(-0.00248865 1.77843 7.15965e-20)
(1.01274 -0.00188078 -2.56767e-19)
(1.0149 0.00351289 2.59776e-19)
(1.01407 -0.00181037 0)
(0.982944 0.0691306 4.03673e-19)
(0.983657 0.0198012 -4.51108e-19)
(0.954058 0.0157726 5.23751e-19)
(0.981006 0.0848718 -5.24213e-20)
(1.03141 0.00384404 0)
(1.03839 0.0090205 2.22827e-19)
(1.04108 0.00421851 -2.21429e-19)
(1.01732 0.0393622 -1.32956e-20)
(1.02344 0.0126403 1.18299e-19)
(0.986889 0.0291422 0)
(0.973878 0.022153 -4.10833e-20)
(1.00812 0.018648 0)
(1.0034 0.0267817 0)
(1.01396 0.000349114 0)
(1.01621 0.00157652 0)
(1.00008 0.0165796 8.8923e-20)
(1.00148 0.0217413 -1.89749e-19)
(0.998833 0.0276799 -9.21532e-20)
(0.974436 0.0187498 -1.04695e-19)
(0.986166 0.0421438 1.76239e-19)
(1.0482 0.039405 0)
(1.05039 0.0895401 0)
(0.00767355 1.7543 -2.49367e-20)
(0.0228333 1.74955 -2.54133e-21)
(0.0197232 1.74608 0)
(0.0101515 1.7742 2.55548e-20)
(0.00903207 1.77816 4.30737e-21)
(0.00872965 1.77749 -4.29246e-21)
(0.00410774 1.7784 5.75778e-20)
(0.00251967 1.77059 -3.64819e-21)
(0.00420579 1.77435 1.60117e-20)
(0.00815712 1.77409 -2.96603e-20)
(0.00629161 1.77732 3.45973e-20)
(-0.000767215 1.77478 2.89717e-22)
(0.0108869 1.76695 2.8203e-20)
(0.276555 1.79615 -1.61684e-19)
(0.231941 1.79254 7.07304e-20)
(0.489454 1.63513 -3.85454e-19)
(0.376972 1.80732 -1.79885e-19)
(0.385897 1.72952 0)
(0.354417 1.59786 1.94128e-19)
(0.384073 1.55811 2.76133e-19)
(0.206538 1.63496 4.13641e-20)
(0.202446 1.63564 -6.19869e-19)
(0.266612 1.64485 5.13412e-19)
(0.286113 1.63319 0)
(0.222453 1.63605 -3.91229e-19)
(0.0673644 1.67458 7.91472e-19)
(0.138363 1.66846 -4.45296e-20)
(0.0650198 1.67038 -1.08205e-18)
(0.805828 1.55865 7.06177e-19)
(0.623952 1.51025 0)
(1.03294 -0.01356 8.73253e-21)
(1.01301 0.00917532 -7.51414e-21)
(1.01919 0.0222953 -1.29076e-19)
(1.02751 0.0102284 1.28013e-19)
(1.02983 -0.00536011 0)
(0.317457 1.21654 0)
(0.336608 1.06615 0)
(0.62117 0.993709 0)
(0.486216 0.806161 0)
(0.959924 2.6915 5.5422e-20)
(0.860379 2.35873 0)
(0.410705 2.6718 2.40711e-22)
(0.474633 2.05351 0)
(0.538977 2.25278 -4.27603e-19)
(0.522271 2.37004 2.68337e-19)
(0.853663 0.127925 0)
(0.833245 0.16255 8.04639e-20)
(0.913694 0.101418 3.95696e-19)
(0.85088 0.102008 -1.60685e-19)
(0.831506 0.0881879 -4.96602e-19)
(0.996559 0.192168 -2.25057e-19)
(0.914575 0.283897 -1.14461e-20)
(0.8429 0.2715 3.82873e-19)
(0.935585 0.202934 2.61648e-19)
(0.935715 0.148508 -4.98119e-19)
(0.912618 0.147882 6.49868e-20)
(0.927147 0.227048 -1.22719e-19)
(0.909435 0.178435 0)
(0.962083 0.139408 2.34514e-19)
(0.973125 0.139575 0)
(0.963218 0.174695 0)
(1.05935 0.102659 7.43442e-20)
(0.991857 0.133828 -1.26378e-20)
(0.995095 0.193468 -4.0867e-20)
(1.06368 0.19144 0)
(1.01437 0.0265917 2.01314e-19)
(1.0055 0.0311972 2.3709e-19)
(1.01225 0.0329109 -1.92715e-19)
(1.0252 0.0468782 -1.61834e-19)
(1.00521 0.0647337 -2.83443e-19)
(0.936669 0.0840552 0)
(0.948235 0.0747973 0)
(0.945377 0.0461676 -1.89429e-19)
(0.910129 0.0634848 8.15967e-20)
(1.01978 0.102026 2.3224e-19)
(0.994009 0.118591 -2.31507e-19)
(1.00169 0.127688 2.08617e-19)
(1.00427 0.132063 0)
(1.01123 0.0961363 0)
(1.00405 0.0894647 -9.71429e-20)
(1.02461 0.0915786 -1.82071e-19)
(0.25618 1.72046 -4.85653e-19)
(0.493171 2.68128 4.62876e-19)
(0.928126 3.11422 4.35732e-19)
(1.15074 3.34452 -1.33058e-19)
(1.0696 2.90543 1.1899e-18)
(1.17715 2.84582 -3.79588e-19)
(1.03625 2.29432 -1.10284e-20)
(1.09848 3.26919 5.01428e-19)
(1.08275 3.24276 -6.98049e-19)
(1.16363 3.44 -2.88854e-19)
(1.37151 3.13401 3.83743e-19)
(1.4043 3.00012 0)
(0.620623 0.824955 7.36522e-21)
(0.202474 1.26085 3.59326e-19)
(0.401514 0.621234 4.15707e-19)
(0.242577 0.381692 4.78906e-19)
(0.558865 0.442162 4.41133e-19)
(0.541102 0.487842 -7.22781e-19)
(0.525684 0.525971 5.99775e-19)
(0.486385 0.505827 -2.4529e-19)
(0.515106 0.449776 5.41298e-19)
(0.797332 0.246409 -1.8736e-19)
(0.759501 0.300426 0)
(0.776307 0.277902 1.12929e-20)
(0.690279 0.497804 1.89225e-19)
(0.65635 0.484492 -6.98208e-19)
(0.580015 0.522713 2.7653e-20)
(0.641611 0.467017 0)
(0.68285 0.676358 1.07413e-19)
(0.753731 0.750477 -3.13446e-21)
(0.71599 0.816903 -1.03109e-20)
(0.810265 0.684686 -8.71436e-21)
(0.892388 0.831972 1.99216e-20)
(0.863119 0.791443 -2.05364e-20)
(0.778317 0.586204 -1.90038e-19)
(0.854305 0.632707 8.11007e-21)
(0.952673 0.651912 0)
(0.944404 0.646638 -3.56208e-21)
(0.951849 0.313077 5.86976e-20)
(1.08754 0.295887 -7.48536e-21)
(0.987261 0.225973 9.14288e-20)
(0.941423 0.341385 -1.31836e-19)
(0.953872 0.409943 0)
(1.02166 0.386153 0)
(0.811851 0.345656 -2.96303e-21)
(0.823239 0.288978 0)
(0.837441 0.273013 1.87745e-19)
(0.806984 0.280165 -4.36457e-22)
(0.874178 0.414474 7.32015e-19)
(0.828738 0.503348 1.80962e-19)
(0.818294 0.447934 -2.527e-19)
(0.770675 0.413248 2.71433e-19)
(0.743458 0.418217 1.8337e-19)
(0.714378 0.416978 -1.7781e-19)
(1.01701 0.0242341 2.07622e-19)
(1.01786 0.001377 0)
(1.01239 0.0184767 1.43119e-19)
(1.0153 0.024138 -3.22523e-19)
(1.01664 0.00694119 1.53316e-19)
(1.01617 0.0150025 -3.2057e-19)
(1.01102 0.00383946 0)
(1.0091 -0.00539259 -6.82667e-20)
(1.02166 0.00328192 1.6628e-19)
(1.02185 -0.00150309 -8.49581e-20)
(1.01586 0.0022079 6.50957e-20)
(-0.00691972 1.81577 0)
(-0.0042313 1.77096 0)
(-0.00954991 1.82572 0)
(-0.00891008 1.82203 0)
(0.0447642 1.80844 6.14246e-20)
(0.0620978 1.8252 -1.91072e-20)
(0.080003 1.78393 -3.16177e-20)
(0.0805385 1.82983 -2.53922e-20)
(0.00991219 1.78127 -8.30998e-20)
(0.0145646 1.78056 6.11756e-20)
(0.0339424 1.79551 -1.36203e-20)
(0.00173915 1.79739 -3.19103e-20)
(-8.181e-05 1.78702 -3.25341e-21)
(-0.00629794 1.78113 -7.57052e-21)
(0.0620632 1.7568 -1.90541e-19)
(0.0737941 1.75516 0)
(0.074289 1.74939 1.1345e-19)
(0.102346 1.76987 7.25397e-20)
(0.130767 1.73062 -8.02054e-20)
(0.09745 1.66505 0)
(0.104056 1.65445 -5.83885e-19)
(0.157452 1.66569 4.08534e-19)
(0.123795 1.73795 -2.21254e-19)
(0.0948908 1.73006 1.22634e-19)
(0.0539924 1.69711 0)
(0.0133264 1.77794 -1.40773e-19)
(0.0157078 1.77678 -1.66866e-19)
(0.0152492 1.78056 0)
(0.0137545 1.77676 -4.6251e-21)
(0.00797781 1.77221 7.10752e-20)
(-0.000293001 1.77417 7.75317e-21)
(0.00270664 1.78432 -1.2319e-19)
(0.000373426 1.77582 3.21288e-20)
(-0.0068572 1.75966 4.27249e-20)
(-0.000531071 1.76103 0)
(0.00104224 1.78254 0)
(-0.00596826 1.78807 3.52938e-20)
(-0.000609132 1.78999 -1.03597e-20)
(0.000904234 1.78701 0)
(0.000839544 1.78929 2.61398e-20)
(-0.00659825 1.78432 -5.34001e-20)
(1.00247 0.0210349 0)
(1.0061 0.0292691 -2.05178e-20)
(1.00919 0.0101488 -1.46982e-19)
(1.01906 0.0238191 0)
(1.01939 0.0315486 0)
(1.00488 0.000887629 -9.33221e-21)
(1.00749 0.000430409 2.43732e-19)
(1.00798 0.00290509 3.06137e-19)
(1.01934 0.00291044 0)
(1.02014 0.0034226 0)
(1.00793 0.0133638 1.56966e-19)
(1.00558 0.0132723 0)
(1.01404 0.0113589 0)
(-0.00318784 1.75241 0)
(-0.000611472 1.76291 2.02647e-21)
(-0.000275857 1.751 1.66851e-20)
(-0.00287631 1.78967 0)
(-0.005269 1.77478 2.20388e-20)
(-0.00322491 1.78643 -9.29248e-21)
(-0.00195366 1.79097 0)
(0.313098 1.81881 0)
(0.209734 1.7938 -1.55781e-19)
(0.211889 1.77368 0)
(0.245915 1.7929 9.2473e-20)
(0.269002 1.73265 0)
(0.258524 1.78362 1.30514e-21)
(0.848719 2.13262 -1.44259e-20)
(0.837414 1.57593 -8.58959e-19)
(0.882808 1.59291 5.27815e-19)
(0.661814 1.51322 2.56986e-19)
(0.601378 1.78262 0)
(0.589035 1.9365 0)
(0.789891 1.5297 0)
(0.720353 1.45418 -9.36002e-19)
(0.399495 1.87125 -5.01898e-19)
(0.544759 1.74327 -1.55179e-19)
(0.487606 1.93639 1.29877e-19)
(0.477551 1.55925 0)
(0.593643 1.51861 0)
(0.53708 1.53629 -3.11855e-19)
(0.544764 1.68306 0)
(0.670071 0.759228 0)
(0.619504 0.73691 6.13834e-19)
(0.731919 0.724516 3.10366e-20)
(0.348804 0.881365 0)
(0.647796 0.965791 -9.94438e-19)
(0.735983 0.834937 5.8635e-20)
(0.730356 0.924359 0)
(0.706013 0.935204 -1.24121e-19)
(0.711006 0.754708 0)
(0.736067 0.750874 0)
(0.881043 3.01086 3.26322e-19)
(0.905575 3.11125 2.23672e-19)
(0.549869 2.90836 -6.6891e-19)
(0.417564 2.79009 7.65937e-21)
(0.869499 2.72579 0)
(0.802047 2.66118 -1.07546e-20)
(0.877236 2.34912 2.77459e-19)
(0.890473 2.05622 1.42664e-21)
(0.127025 2.22143 0)
(0.0987328 1.58753 4.24583e-19)
(0.145932 1.55938 0)
(0.880152 0.19154 0)
(0.835856 0.179303 0)
(0.802095 0.182902 0)
(0.879388 0.213381 -2.97974e-19)
(0.822021 0.213876 1.90919e-19)
(0.908766 0.0695103 -1.69025e-19)
(0.901351 0.099934 0)
(0.894836 0.0994328 7.49524e-20)
(0.868437 0.0849496 3.10627e-19)
(0.878794 0.0687887 -1.89628e-19)
(1.14904 3.46814 -7.29508e-19)
(1.19518 3.43047 0)
(1.16357 3.46399 -1.62653e-18)
(0.715271 3.62079 1.6383e-18)
(1.0392 3.08414 3.14157e-19)
(0.635262 0.981215 2.53871e-19)
(0.751613 0.831198 0)
(0.502441 0.616603 -9.68532e-20)
(0.504415 0.72076 3.89437e-19)
(0.481241 0.626418 -1.26988e-19)
(0.512196 0.561948 1.50755e-19)
(0.618202 0.521005 2.90953e-19)
(0.675905 0.511633 0)
(0.594285 0.643593 0)
(0.556099 0.606742 0)
(0.959078 0.562141 -4.97614e-20)
(0.852482 0.505012 -1.73743e-19)
(0.847997 0.551541 6.31857e-20)
(0.889776 0.486736 -1.30248e-19)
(0.974167 0.44517 0)
(0.982642 0.524077 -3.4365e-21)
(0.786077 0.381277 -4.08726e-19)
(0.803731 0.367434 -4.5548e-19)
(0.75074 0.383882 3.178e-19)
(0.737407 0.372923 -3.53078e-19)
(0.802259 0.331064 -2.64057e-19)
(0.750086 0.341386 3.25163e-19)
(1.01481 -0.00347873 -1.6433e-19)
(1.01824 -0.00570265 3.27733e-19)
(1.01473 0.0192796 1.97938e-19)
(1.0115 0.0262154 -2.4451e-19)
(0.992568 0.0269979 0)
(1.00866 -0.00483371 -3.81854e-19)
(0.0459234 1.78537 3.1232e-20)
(0.0308169 1.78781 0)
(0.0830368 1.77015 2.15142e-19)
(0.0914414 1.78084 -1.88649e-19)
(0.0717842 1.79643 5.83851e-20)
(0.0510053 1.79639 0)
(-0.0118442 1.76284 0)
(-0.00662487 1.77205 -1.24224e-20)
(-0.00493856 1.77903 1.14939e-20)
(-0.00494317 1.7737 3.84899e-21)
(-0.00856697 1.75847 -2.2404e-20)
(-0.00569748 1.76298 1.15789e-20)
(0.18317 1.99788 -4.43051e-19)
(0.209876 1.92932 4.6822e-19)
(0.211846 1.7912 -4.33819e-20)
(0.239201 1.90068 2.10006e-20)
(0.302151 1.36754 0)
(0.282404 1.64835 1.94582e-19)
(0.289784 1.51159 -1.88611e-19)
(0.164259 1.72517 4.11165e-20)
(0.143282 1.69046 0)
(0.110794 1.54756 0)
(0.391989 1.7748 7.60973e-19)
(0.41487 1.61914 1.35337e-18)
(0.492554 1.6851 -9.16505e-19)
(0.382919 1.62768 -1.64268e-19)
(0.309718 1.70595 2.7077e-19)
(0.262793 1.64181 -6.68175e-19)
(0.888803 1.75711 -2.6786e-19)
(0.91343 1.98249 0)
(0.919109 1.75972 1.33338e-19)
(0.832286 2.42032 0)
(0.817072 2.31598 0)
(0.861998 2.24502 3.69831e-19)
(1.10966 3.15925 6.03095e-19)
(1.02152 2.93266 -4.64349e-19)
(0.36959 0.966953 0)
(0.512739 0.946168 -2.01011e-19)
(0.725051 0.896013 -3.93018e-20)
(0.56028 1.98542 0)
(0.464555 2.68728 -2.16064e-19)
(0.423725 2.44672 0)
(0.694137 0.677551 -2.25143e-19)
(0.733742 0.660404 3.41319e-19)
(0.740358 0.60609 -3.29586e-19)
(0.647583 0.634494 -4.1114e-20)
(0.688062 0.591307 -1.84301e-19)
(1.06279 2.87751 -4.46145e-19)
(1.02769 3.03105 7.44586e-19)
(0.850449 2.37796 -5.9562e-19)
(0.973537 1.95663 4.00388e-19)
(0.838709 2.4892 1.22777e-18)
(1.03581 2.71723 7.27928e-20)
(0.835654 2.86472 -7.1461e-19)
(0.959596 2.093 -5.15585e-20)
(0.822836 2.02433 -6.44869e-19)
)
;

boundaryField
{
    wall-4
    {
        type            noSlip;
    }
    velocity-inlet-5
    {
        type            fixedValue;
        value           uniform (1 0 0);
    }
    velocity-inlet-6
    {
        type            fixedValue;
        value           uniform (0 3 0);
    }
    pressure-outlet-7
    {
        type            zeroGradient;
    }
    wall-8
    {
        type            noSlip;
    }
    frontAndBackPlanes
    {
        type            empty;
    }
}


// ************************************************************************* //
