/*--------------------------------*- C++ -*----------------------------------*\
  =========                 |
  \\      /  F ield         | OpenFOAM: The Open Source CFD Toolbox
   \\    /   O peration     | Website:  https://openfoam.org
    \\  /    A nd           | Version:  6
     \\/     M anipulation  |
\*---------------------------------------------------------------------------*/
FoamFile
{
    version     2.0;
    format      ascii;
    class       volScalarField;
    location    "5";
    object      p;
}
// * * * * * * * * * * * * * * * * * * * * * * * * * * * * * * * * * * * * * //

dimensions      [0 2 -2 0 0 0 0];

internalField   nonuniform List<scalar> 
918
(
0.197549
1.0877
0.00365589
0.191865
0.00134456
1.05519
-0.704994
0.358982
0.180166
-0.118385
0.0217394
0.167844
0.914613
0.674741
-1.48772
0.0223042
0.320735
-0.83324
0.1474
0.013941
0.578861
0.198599
0.19384
0.17338
0.218055
0.693387
0.793588
0.000167251
0.000896258
0.00265823
-0.00462054
-0.00327919
0.0019692
0.938604
0.990444
1.01359
0.152581
-0.375382
-0.536151
-0.639374
-0.575283
-0.797179
0.345543
0.350693
-0.463589
0.363788
0.384544
0.162149
0.177049
0.176241
0.187438
0.181831
0.184468
0.261408
-0.144463
-0.222162
-0.0634124
-0.0384677
0.0741816
0.0226781
0.0317401
0.0249585
0.0341462
0.112443
0.161219
0.161147
0.17323
0.178802
1.02798
1.001
1.02744
0.939746
0.956858
0.892981
0.866129
0.703183
0.721442
0.661795
0.644527
-1.97675
-2.91504
-0.906423
-0.584847
0.00334953
0.025487
0.0184067
0.312797
0.319146
0.318318
0.333736
0.664944
-0.699921
-0.919242
0.181808
0.169432
0.183658
0.184681
0.154315
0.17508
0.0156757
0.025022
0.0076438
0.0111316
0.0149631
0.520013
0.489011
0.149397
0.148707
0.188658
0.193537
0.187183
-0.0462203
0.224351
0.256992
0.464672
0.640365
0.652301
0.659152
0.76899
0.736707
0.825992
0.846921
0.00682064
0.00256136
0.00799822
0.007339
0.0145969
0.142667
0.139957
0.15956
0.159771
0.154622
-0.421214
-0.501087
-0.257729
-0.132171
-0.471118
-0.564731
-0.759521
-0.646869
-0.912064
0.758384
0.329567
0.339525
-0.426276
-0.36875
-0.509698
-0.354666
-0.441117
0.156995
0.157415
0.156809
0.154592
0.16115
0.164327
0.181501
0.176616
0.179295
0.281932
0.34405
0.222938
0.208701
-0.474034
-0.226246
-0.419932
-0.0251272
-0.015416
0.08806
0.103974
0.0633558
0.0655634
0.00428272
0.0163966
0.00660718
0.0369464
0.0265889
0.10449
0.0953186
0.116283
0.129884
0.155437
0.160238
0.15502
0.156902
0.819537
0.838995
0.844321
0.817874
-3.85649
-6.19115
-0.207421
-0.0397022
0.000115032
0.00299453
0.00192585
-0.00144489
0.00621931
0.000843356
0.0484953
0.042567
0.0260243
0.0274137
0.295278
0.300306
0.649332
0.706092
0.598792
0.574172
0.163352
0.163343
0.165793
0.155661
0.0238186
0.0272403
0.0188197
0.389499
0.443046
0.424772
-0.085908
-0.168927
3.14733e-06
0.0259519
0.281233
0.267485
0.272459
0.545062
0.585613
0.864557
0.887514
0.874056
0.887299
0.93235
0.952444
0.919533
0.130886
0.135072
0.129484
0.164435
0.155282
0.159732
0.156552
0.158338
0.161377
-0.560543
-0.776085
0.517226
0.382939
0.0468196
0.242497
0.744939
0.78935
0.325771
0.33434
0.339397
-0.312332
-0.38371
0.179264
0.148949
0.0524672
0.0832829
0.0650483
0.78772
0.747907
0.794547
0.770671
0.735552
0.759106
-0.645206
-2.24532
-1.23115
0.394538
0.17076
0.259253
0.0601986
0.0423138
0.0442265
0.694446
0.750935
0.375195
0.477297
0.466423
0.627041
0.657227
0.709195
0.634047
0.677535
0.706748
0.692501
0.696958
0.58688
0.667737
0.763327
0.78093
-0.191858
-0.261154
-0.297374
0.110688
0.136394
0.118405
0.730389
0.740503
0.758673
0.145617
0.165527
0.0121062
0.0220945
0.179771
0.170094
0.00465409
0.00880891
0.27697
-1.40168
-0.160605
0.168082
0.158517
0.175823
-0.068425
0.242169
0.0281359
0.0850355
0.0636328
0.156681
0.11889
0.0899032
0.00596176
0.0146016
0.0118523
-0.313992
0.158007
0.154115
0.175469
0.174007
0.179379
0.00935973
0.0123686
0.0041468
0.00824713
0.01647
0.0131736
0.146102
0.152427
-0.258422
0.167609
0.173064
0.174396
0.169125
0.17799
0.185361
0.0136396
0.0088508
-0.000804107
-0.0716376
0.0328285
0.561105
0.672601
0.504426
0.245637
-0.0576784
0.447004
0.509093
0.397999
0.572492
0.30515
0.337659
-0.0691998
-0.183794
-0.133921
-0.165299
0.161315
0.160892
0.150728
0.155905
0.157894
0.172831
0.155252
0.169234
0.165349
0.159373
-0.0283119
-0.0435969
-0.0929314
-0.143106
0.278574
0.332503
0.187778
0.203481
0.127158
0.0317078
0.0291632
0.0273683
0.0151902
0.0580027
0.0637724
0.0650446
0.0615117
0.0397386
0.0418135
0.0540895
0.0543011
0.0575667
0.157428
0.154201
0.158485
0.168562
0.123416
0.1293
0.105021
0.116749
0.103817
0.0694951
0.0755036
0.0657347
0.00572813
0.0032234
0.00493527
0.0127777
0.026704
0.0234747
0.015826
0.00596077
0.00820971
0.0133801
0.0229009
0.0272035
-0.264026
-0.382527
0.61729
0.534126
0.312379
0.170322
0.168612
0.159413
0.14631
0.166144
0.181614
0.177067
0.161543
0.156898
0.156908
0.1539
0.154531
-0.13395
-0.302362
-0.128529
-0.247446
-0.379625
0.261446
0.0225689
0.0191739
-0.0300569
0.164591
0.657798
0.601552
0.639503
0.591438
-0.909503
-0.251583
-0.697206
-0.0501525
-0.453384
0.559916
0.600556
0.607762
0.562517
0.524232
-0.391246
-0.0789731
-0.234422
-0.181823
-0.0889875
-0.138257
0.443383
0.298119
0.310944
0.32617
0.362819
0.296566
0.270051
0.272283
0.313566
0.322345
0.108073
-0.0771841
-0.0757216
-0.139759
0.303187
0.164251
0.207125
0.155388
0.1612
0.161055
0.164889
0.15963
0.158806
0.162874
0.154823
0.15727
0.167771
0.159124
0.161063
0.166838
-0.0218104
-0.0154867
-0.0552411
-0.212376
-0.185267
-0.287543
-0.107333
0.13295
0.0926662
0.277396
0.370563
0.0667653
-0.101067
-0.0548482
0.00720256
0.131675
0.121853
0.0966163
0.142789
0.165156
0.136273
0.185941
0.174343
0.0374756
0.0526791
0.0350713
0.0254392
0.0915043
0.106345
0.10375
0.0432577
0.0489207
0.0377774
0.0442544
0.0625891
0.0479671
0.0575031
0.0701139
0.0168658
0.0146796
0.0291891
0.031552
0.0341444
0.0263682
0.15267
0.1546
0.159981
0.16208
0.165008
0.186474
0.159015
0.138905
0.128581
0.134409
0.120109
0.135604
0.125793
0.142119
0.142368
0.154561
0.151807
0.154622
0.146428
0.138067
0.1457
0.153993
0.106501
0.0848819
0.0916917
0.0208591
0.0135352
0.0208647
0.0195879
0.0103029
0.010137
0.0444687
0.0336583
0.0396444
0.0326628
0.0453715
0.0244303
0.0260356
-0.106743
0.0158382
-0.246091
-0.293525
-0.335065
0.605951
0.663466
0.525602
0.45217
0.463052
0.547308
0.578783
0.360913
0.456561
0.428134
0.667372
0.693245
0.138154
0.145739
0.161356
0.152882
0.151983
0.00778533
0.117569
0.00996377
0.045193
-0.122365
-0.179256
0.452154
0.44681
0.483474
0.404786
0.248532
0.269133
0.210758
0.246681
0.254406
0.0901247
0.159043
0.212512
0.152521
0.192436
0.215094
0.179503
0.206241
0.171066
0.144145
0.13701
0.0818595
0.105135
0.0881503
0.0776065
0.146622
0.138347
0.136302
0.132792
0.156261
0.19154
0.176621
0.187028
0.202291
0.136667
0.117751
0.120768
0.134714
0.109155
0.102319
0.117744
0.225848
0.185176
-0.0458097
-0.6592
-0.528632
-0.424764
-0.5528
-0.539318
-0.282586
-0.981787
-0.738049
-1.32254
-0.340169
0.62904
0.412593
0.501558
0.363592
0.321787
0.318885
0.400616
0.406036
0.290589
0.291487
0.303641
0.212428
0.254209
0.284412
0.284978
0.0022442
0.0820591
0.030865
0.0492173
-0.0639409
-0.0433356
0.0937888
0.072327
0.0245
0.0190322
0.115465
-0.00314045
0.0583113
0.120215
0.116418
0.0489432
0.1919
0.26147
0.243413
0.221429
0.147449
0.156987
0.178724
0.216188
0.231358
0.257499
0.150241
0.155169
0.159012
0.151618
0.148893
0.155281
0.154714
0.15787
0.158709
0.166537
0.166359
0.0204614
0.0304616
0.00495003
0.014621
0.0422861
0.00142178
0.0364513
0.00200648
0.0408891
0.0448494
0.0351646
0.00214337
0.0108851
0.0271227
0.158252
0.169936
0.182814
0.136193
0.208544
0.340828
0.371389
0.313319
0.195862
0.238912
0.295296
0.0656861
0.0830958
0.0701055
0.0892
0.0753658
0.0326795
0.031049
0.0297682
0.0399092
0.0352414
0.0314805
0.0270301
0.0258957
0.0281739
0.0370716
0.0310256
0.143498
0.129262
0.109362
0.101744
0.105874
0.131293
0.141022
0.142529
0.151465
0.152824
0.144102
0.15231
0.153659
0.0330138
0.0205405
0.019265
0.0251066
0.0214877
0.0383266
0.0329149
0.27315
0.117873
0.237015
0.0749444
-0.1654
-0.0774865
0.506557
0.607895
0.60005
0.64666
0.58608
0.57004
0.609478
0.69204
0.407831
0.545413
0.489315
0.641565
0.642385
0.681775
0.549899
0.106862
-0.488091
-0.282731
0.0600444
-0.318034
-0.000672753
-0.0249746
-0.0458626
-0.0118068
-0.0983483
0.127494
0.207414
0.301822
0.404837
0.179867
0.338387
0.0201747
0.109292
0.328028
0.295797
0.273237
0.251461
0.271758
0.292113
0.260719
0.289725
0.211552
0.214902
0.220442
0.232158
0.213834
-1.10985
-1.03663
-1.84057
-1.38143
-1.11223
-0.639398
-0.642347
0.0801871
0.0466091
0.270685
0.259616
0.230752
0.183188
0.130585
0.207298
0.0443528
0.129691
0.105997
0.111404
0.0664527
-0.0239171
0.229226
0.222495
0.254562
0.274885
0.254302
0.275528
0.141619
0.143659
0.148179
0.147784
0.132417
0.128616
0.1065
0.0849576
0.116812
0.0823396
0.0365556
0.0511661
0.0355963
0.0351249
0.0225586
0.0209824
0.0359395
0.0355511
0.274973
0.304801
0.127666
0.231971
-0.00691519
-0.0886232
-0.125626
0.0582865
0.129491
0.144676
0.448538
0.558357
0.510342
0.517843
0.404564
0.441876
0.519759
0.295649
0.421832
0.397874
0.490983
-0.994235
-1.00403
-1.03665
0.187083
-0.0706469
-0.597486
-0.83462
-0.814352
-0.378098
0.0704316
0.0750638
0.101804
0.114812
0.124879
-0.803315
-0.609785
-0.917892
-0.695861
-0.0604953
-0.396536
-0.144704
-0.532597
-0.33736
)
;

boundaryField
{
    wall-4
    {
        type            zeroGradient;
    }
    velocity-inlet-5
    {
        type            zeroGradient;
    }
    velocity-inlet-6
    {
        type            zeroGradient;
    }
    pressure-outlet-7
    {
        type            fixedValue;
        value           uniform 0;
    }
    wall-8
    {
        type            zeroGradient;
    }
    frontAndBackPlanes
    {
        type            empty;
    }
}


// ************************************************************************* //
