/*--------------------------------*- C++ -*----------------------------------*\
  =========                 |
  \\      /  F ield         | OpenFOAM: The Open Source CFD Toolbox
   \\    /   O peration     | Website:  https://openfoam.org
    \\  /    A nd           | Version:  6
     \\/     M anipulation  |
\*---------------------------------------------------------------------------*/
FoamFile
{
    version     2.0;
    format      ascii;
    class       surfaceScalarField;
    location    "5";
    object      phi;
}
// * * * * * * * * * * * * * * * * * * * * * * * * * * * * * * * * * * * * * //

dimensions      [0 3 -1 0 0 0 0];

internalField   nonuniform List<scalar> 
1300
(
3.75095
5.62643
-6.45612
3.75095
-6.31531
5.62643
-5.44705
5.44705
-1.65963
1.65963
1.88752
1.86344
-5.4641
5.4641
-5.45566
5.45566
-2.99197
2.99197
-5.24786
5.24786
-5.07062
5.07062
4.75328
-4.75328
-5.19239
5.19239
-2.16697
2.16697
-6.07302
6.07302
3.21811
-3.21811
-5.49295
5.49295
-0.680372
0.680372
-0.527967
4.27892
3.22299
3.22299
-2.82531
2.82531
-4.89101
4.89101
6.22118
-6.22118
9.73879
-9.73879
-3.28267
-3.33043
1.35933
-8.07517
-4.95599
-4.95599
-8.44079
8.44079
-2.81436
2.81207
3.13079
-3.13079
-0.981053
0.981053
-5.10291
-0.344147
-5.10291
5.82201
-0.37496
5.82201
-1.81165
0.152023
-1.81165
4.21255
-4.21255
1.51853
0.141101
1.51853
3.09505
-3.09505
-1.8793
3.76681
1.87166
-1.86683
6.14576
-1.88412
3.74755
-4.95623
4.95623
-5.55062
0.0865206
-5.55062
5.4747
-0.0106004
5.4747
-5.36096
5.36096
-5.47816
0.0224962
-5.47816
5.45618
-0.000517554
5.45618
3.21157
-3.21157
-3.04204
0.0500707
-3.04204
2.94731
0.0446566
2.94731
0.353185
5.27325
-5.97961
8.79168
-5.27325
0.0253876
5.20932
0.0385375
5.20932
-5.10498
0.0343569
-5.10498
5.03292
0.0377038
5.03292
4.81802
-0.0647419
4.81802
-4.86068
0.1074
-4.86068
-3.28594
-3.29739
-5.27497
0.0825834
-5.27497
-2.14898
-0.0179883
-2.14898
2.12598
0.0409901
2.12598
-3.88807
3.88807
-6.28979
0.216767
-6.28979
3.14165
0.0764543
3.14165
1.87117
1.87978
5.62212
-5.62212
2.40401
-5.46981
-0.0231429
-5.46981
-5.52015
-4.21865
5.52015
-0.0271931
-1.07865
0.398281
-1.07865
3.19418
0.0288038
3.19418
2.95101
-0.00369638
-2.95101
0.125696
3.63262
-3.63262
2.11047
0.714841
2.11047
-5.57064
5.57064
4.98315
0.0497681
-4.98315
0.0921437
6.15606
0.0651129
6.15606
-6.2059
-0.0152737
-6.2059
3.32048
-6.65092
-3.3066
5.09332
0.0990625
-5.09332
0.137339
3.16563
-0.0348426
3.16563
-3.09598
3.09598
-3.11954
-0.0112466
-3.11954
-1.28171
0.300657
-1.28171
1.0097
-0.0286467
1.0097
-4.78355
-0.319352
-4.78355
-6.15275
-0.137038
6.15275
-0.330738
2.64058
-2.64058
-1.95367
0.142012
-1.95367
-4.46959
-0.313969
4.46959
-0.257034
-4.09527
-0.117277
-4.09527
-3.12039
0.0008479
3.12039
-0.025336
3.12691
0.0672768
-3.12691
0.0318518
-1.86598
3.74577
-1.88497
3.75663
-4.67499
-0.281238
-4.67499
5.12185
-0.165623
5.12185
5.77645
0.296574
-5.77645
0.225824
5.44972
0.0249811
5.44972
-5.34435
-0.0166103
-5.34435
5.40832
-0.0473582
5.40832
5.43802
0.0117043
-5.43802
-0.0401391
5.47357
-0.017387
5.47357
3.23712
-0.0255544
3.23712
-3.17486
-0.036711
-3.17486
3.08956
-3.08956
3.08594
0.00361959
-3.08594
0.0439011
-11.1239
11.1086
-0.0334198
-11.0905
5.1759
5.1759
3.97112
0.846903
3.97112
-5.02843
0.167746
-5.02843
3.2708
-6.5774
3.29849
-6.58444
3.30953
-11.3847
3.32372
-6.62111
5.4145
-5.4145
5.35794
0.0565582
-5.35794
0.082969
-2.1582
0.00922431
-2.1582
-3.68788
-0.200188
-3.68788
4.09715
-0.209083
4.09715
-3.08621
3.08621
-3.07925
-0.0069562
3.07925
0.0624045
5.4721
0.00146288
-5.4721
0.00229223
1.3334
0.185133
-1.3334
0.254745
3.80565
-0.173031
3.80565
-3.44556
-0.187053
-3.44556
-2.13665
-0.021554
2.13665
-0.0261806
-5.81643
0.245787
-5.81643
-11.1865
0.0959707
-11.1479
-6.10993
-6.10993
2.33086
11.1225
-3.17984
0.00498494
3.17984
-0.0142103
3.10629
-0.0200811
-3.10629
0.0103079
-3.08552
-0.00404151
3.08552
0.0104617
-1.78271
0.501003
-1.78271
-1.82421
1.82421
-1.34907
-0.475139
1.34907
-0.339369
2.96401
-0.323434
2.96401
2.04364
0.0823341
-2.04364
0.0899786
-4.03535
-0.0599267
-4.03535
5.15909
-0.0372387
5.15909
-3.31938
-0.126181
3.31938
-0.0822612
-0.0357486
11.1444
-5.14015
0.0351734
5.14015
-11.2095
11.2447
-2.69845
0.915737
2.69845
1.27267
5.29276
0.277884
-5.29276
0.264329
5.39462
0.0137026
-5.39462
-0.0198804
-3.47179
-0.216087
-3.47179
-4.31498
-0.360011
4.31498
-0.21783
-11.4538
-0.202552
11.6564
-11.4161
6.01898
0.137083
-6.01898
11.3818
-2.27235
-0.368231
2.27235
-0.448138
3.1536
-0.189589
3.1536
3.9569
-0.151254
-3.9569
-0.0784455
-5.2436
-0.100754
5.2436
-0.0845068
-3.2922
-0.179589
3.2922
-0.138604
-4.24169
4.2705
1.90406
-3.34386
-3.30705
-7.56251
1.82926
1.91651
4.23327
-7.03964
-4.34505
-6.90231
7.28303
-7.0187
-9.66934
9.6046
7.31438
-7.43166
-5.75313
5.81553
6.37313
-6.39847
1.84363
1.92319
10.6355
-10.549
-10.3039
10.0227
10.2191
-10.1966
10.6075
-10.6241
-12.1875
12.2012
-5.69073
5.7408
-6.64277
6.60606
-6.73858
6.65632
-3.22298
-3.36146
9.06327
-8.98068
11.7029
-11.7261
-11.2451
11.4619
3.28598
0.984512
3.35326
-1.88321
3.72684
-1.86434
3.7684
3.28483
-6.5078
3.29258
-6.59963
6.02554
5.67737
-5.99835
-1.56416
-5.89394
5.8591
-5.79057
5.80103
9.32463
-9.66877
-1.89426
3.81744
-1.86237
3.77888
-3.3801
-2.37303
3.30365
0.929624
5.5708
3.49246
-5.66987
-1.23244
-7.51745
7.3662
-7.79217
7.60511
-0.492034
5.79529
-5.30325
4.39897
-1.49262
7.28791
5.79041
5.95816
5.86011
-5.58223
1.15859
-6.46185
-6.3697
-2.65398
2.79599
2.70393
-2.56283
5.85971
1.45467
5.60268
-5.57647
-1.85519
-5.63639
3.87851
1.93702
3.87155
4.07693
2.29621
4.07778
3.04318
-3.04329
0.00010479
-3.10964
6.15282
0.774156
-5.48266
-4.55304
7.02183
3.61366
7.01123
-7.24447
-3.3045
-7.01864
-6.04296
-4.26096
-6.40297
6.53379
3.48889
6.36817
-7.83309
7.74858
6.7434
3.47571
6.74288
-6.82028
-3.37633
-6.86042
10.2763
-2.64682
-7.62946
-6.81062
-5.37684
6.85798
3.74953
7.4577
4.74346
7.43782
3.51333
6.76295
-7.26286
1.88602
-3.82998
-1.86076
-3.78607
3.69895
2.04185
3.74361
-4.17062
-2.47215
-4.16563
-4.2219
-2.51668
4.24746
2.3586
-4.22039
-3.57177
4.34658
2.30974
3.06718
-7.41223
3.55393
-6.91539
-6.30068
-2.68
-6.21771
3.9217
2.65453
-6.57623
-2.5861
10.7499
-5.07253
9.18574
-7.2879
-4.43815
-7.28561
-8.53265
-2.71244
-8.66969
-5.60773
5.39164
-5.5892
5.38011
10.3291
-5.52848
-4.80059
-3.83797
-2.56051
3.80611
-0.452853
-3.81996
3.82007
-0.0931206
3.67528
4.65979
4.20694
-3.86124
-1.92933
-3.85093
3.85598
1.94505
3.85194
8.03029
1.29434
7.65533
-6.37933
-3.28944
-6.69868
7.39623
-7.09557
2.99663
-3.01818
5.01512
2.58999
-4.84209
-2.67536
5.87879
-2.82102
-3.05777
-12.1761
11.1263
1.0498
-4.88815
-0.489183
0.191189
-5.71778
-3.95156
5.61038
0.347771
11.474
7.52247
-5.49828
5.74407
6.15809
6.20786
-0.161846
5.49401
-4.57827
3.85458
-2.21287
-1.64171
5.1835
-5.49747
-1.51518
-5.08127
3.56609
0.105202
2.11989
-1.7216
-2.14338
-0.5106
-2.0534
1.67416
1.02977
1.8593
0.975477
1.82051
-2.86433
0.590295
2.27403
-1.88885
-1.97253
-3.31684
-1.12105
4.43789
5.40738
1.95882
-5.32893
-0.307465
2.82715
-2.78616
-0.570962
-2.74588
2.13945
-2.71041
-3.39163
-1.81321
5.20484
-3.35952
-0.491411
3.3796
0.491956
-3.78122
-2.11272
3.79247
0.285312
-3.00128
6.1097
-3.10842
-4.93062
2.58212
3.57069
4.51914
-4.79512
2.43499
2.36013
-1.22443
6.03582
0.975411
6.0608
-9.20497
5.90047
7.73128
3.73058
-8.02786
1.00921
-8.19576
9.49343
-8.33678
-1.15666
4.87288
4.62056
5.06969
5.25938
-3.83086
8.90055
-1.207
-7.12978
9.40276
-5.67218
5.66909
-11.3413
-10.9285
3.79869
-6.81152
8.50785
-1.69634
-2.40304
-5.43005
9.21455
-0.900879
-8.31368
5.46729
-5.2934
-5.30043
10.5938
-7.94021
8.67676
-2.55014
-6.12662
-6.62313
-4.00099
6.72388
1.0247
-9.77803
11.664
-3.01508
5.85807
0.884809
5.84068
3.83049
-5.92839
2.0979
4.10972
-6.65986
2.51088
-8.43927
-4.71465
9.41307
-4.69842
-7.39465
-6.54333
-0.851316
2.03412
9.62993
-6.77759
5.26667
1.51091
3.34179
0.510145
-3.34541
-0.440662
0.326431
4.35251
-4.67894
4.07004
4.06634
3.28074
1.07177
3.84245
2.01665
-3.82824
-0.337396
-3.9447
1.42803
-1.5861
-3.29648
4.7245
-3.73376
0.437281
-2.64462
-3.49275
6.13737
-4.50538
3.07411
3.03559
5.01916
-4.73864
1.24589
-2.3396
-2.39904
2.48787
-4.07397
1.85621
2.8683
4.16595
0.594181
4.72223
4.69084
-7.37676
0.461365
8.18331
-6.95087
1.60666
5.83116
-6.87333
0.329998
-5.88772
1.16238
-6.23491
-5.41385
6.03269
-8.74513
-5.30859
7.83019
-0.174862
-7.49945
-1.17023
-3.87833
-1.72939
-4.05792
-1.64888
-3.94032
-5.47974
-1.25113
-4.2286
4.14051
-4.23553
-2.16743
4.45336
0.926749
-4.94409
4.57586
-4.78205
4.59246
0.16026
3.65981
4.3672
1.8067
-2.43538
4.24208
-6.69916
7.99349
-8.68416
1.985
2.79411
-6.08356
-5.89005
4.0069
3.38932
3.97826
6.7926
-9.66199
2.86939
-7.29047
7.90204
-0.611573
-11.1995
3.90907
-4.40694
2.7838
0.212835
2.79302
0.743747
2.32224
-3.06599
-2.27444
-2.30062
-2.19174
-3.15719
5.34893
1.02081
-3.20404
2.18323
-3.16243
4.18324
-0.147382
-3.05666
5.1241
-2.80186
5.33693
-3.30981
2.02712
3.07693
5.2484
-2.17147
4.20881
-1.61881
1.62375
-3.79522
-1.53344
-2.94505
4.9869
-3.19232
3.6296
-0.307961
3.93756
-3.87891
1.0579
-0.598174
3.46817
3.59387
4.10205
-3.03028
2.75095
-4.36976
-1.04428
-3.77557
-0.907279
-4.3314
-3.44074
7.77214
4.50369
-8.83509
-5.73599
8.40439
-2.6684
6.83655
-5.77113
-1.06542
-3.694
-3.40157
3.193
2.30101
9.13756
-0.345432
-5.4257
-4.9237
-3.65103
1.95232
1.90226
-2.56829
3.6181
2.37711
-0.25722
0.576341
1.28295
1.92197
-1.34562
0.183906
1.73806
-1.5377
2.0936
0.733542
-2.17594
0.122541
-1.22984
3.36929
1.04419
-2.07395
0.728329
0.831686
-3.04456
4.12301
-1.88547
-2.23754
4.9547
1.30478
-3.19025
3.77649
-3.67128
1.9297
-3.05074
-1.26056
-4.93184
-3.47717
-2.32702
4.51025
-3.02191
4.98074
1.11862
-4.67327
5.79189
-3.30297
1.48976
-2.89627
3.62981
-0.880269
-2.016
2.63116
2.57367
-2.76342
0.0175358
-0.132253
2.17094
-2.30319
-0.539468
-2.42832
-4.48293
4.76824
-2.05536
4.49035
2.18672
-1.9492
6.43955
1.7742
-3.7234
-3.15642
-3.64783
-1.36327
3.15587
-0.914644
-5.94578
-7.04127
5.93407
0.126731
-8.91767
10.0881
-1.17043
-5.30402
-0.596453
5.46933
-7.36222
0.702367
-4.85135
5.23676
6.21217
6.3389
-8.27901
-0.0346683
-4.79012
1.25082
-6.04094
5.87138
-2.76821
6.5669
-7.05909
4.89166
-6.13234
5.41024
-0.630694
5.502
-3.4041
2.12746
-6.12845
-5.10375
6.9945
-3.51879
7.87931
-4.05996
11.9393
-7.07503
6.93247
5.00679
-1.37048
-5.91513
-6.85949
5.48901
0.0729854
5.91367
4.76062
-2.74397
4.42322
2.1229
-4.4625
-1.95107
-6.27827
1.81578
-3.24268
-1.8541
3.66987
3.16506
3.67521
1.27083
-3.23455
6.47046
-7.32178
-1.77204
-3.64181
6.75364
-1.26463
3.91941
-7.56122
-2.31549
5.39898
-0.918837
-4.48014
0.129501
-5.43809
2.74215
-8.18023
6.00298
-7.17322
1.70039
-6.10732
-3.24371
-3.69184
-1.47171
-3.31034
-4.85115
3.37944
-0.942083
3.63378
-5.71886
4.80003
-2.18318
5.56262
-3.51319
-0.544735
3.65179
0.940674
6.50329
-2.06776
-3.82228
-0.567267
3.45403
-2.88676
1.38505
-5.50851
-2.05448
2.29954
2.65516
-5.86563
-0.217929
-4.04021
-2.58167
5.97099
5.82272
10.3264
0.664423
6.66478
-0.693785
7.3292
3.28447
2.9451
-3.21611
6.0855
4.55603
6.54103
-0.84435
2.87147
1.94867
1.93068
0.855475
2.23074
1.36312
3.28864
0.222653
-2.07796
5.10123
-8.75226
-0.324462
-7.90536
1.69924
6.40902
-4.70978
2.9721
-1.06984
0.0853381
-1.10042
-1.99213
3.09255
-2.74213
-2.24935
-0.511288
-1.59313
2.32145
1.77617
-1.81017
-0.93196
0.288105
-3.76527
2.76264
-2.7451
-0.17143
5.62046
-2.56393
0.260735
-1.07417
-2.16758
-2.67818
2.55564
6.14373
0.295817
3.03531
5.06406
2.95134
0.207365
4.3775
-6.07384
-4.06177
-6.10851
-0.237132
5.2322
1.99473
7.6352
7.00152
5.73689
-1.82433
-9.14611
7.2812
-1.1957
6.66963
-2.18949
-5.99075
6.48007
1.51342
-6.30521
-0.868006
-6.85875
-8.05445
-0.478292
5.27832
-6.025
5.48027
3.75088
0.47773
-2.76629
-0.925552
3.24143
-0.296326
7.03288
-1.78317
-8.4535
10.2367
-4.62585
4.30139
-0.0324692
3.65057
3.06008
1.99024
-6.46326
-11.173
-1.78302
-1.26153
-4.02056
0.417327
-2.19349
6.24366
-1.94227
5.17824
8.29439
8.37973
-3.91238
-4.92271
6.58078
-1.40254
6.97719
)
;

boundaryField
{
    wall-4
    {
        type            calculated;
        value           uniform 0;
    }
    velocity-inlet-5
    {
        type            calculated;
        value           uniform -3.75095;
    }
    velocity-inlet-6
    {
        type            calculated;
        value           uniform -5.62643;
    }
    pressure-outlet-7
    {
        type            calculated;
        value           nonuniform List<scalar> 8(6.45612 6.31531 6.61311 6.71584 6.58333 6.62708 6.5693 6.63325);
    }
    wall-8
    {
        type            calculated;
        value           uniform 0;
    }
    frontAndBackPlanes
    {
        type            empty;
        value           nonuniform 0();
    }
}


// ************************************************************************* //
