/*--------------------------------*- C++ -*----------------------------------*\
  =========                 |
  \\      /  F ield         | OpenFOAM: The Open Source CFD Toolbox
   \\    /   O peration     | Website:  https://openfoam.org
    \\  /    A nd           | Version:  6
     \\/     M anipulation  |
\*---------------------------------------------------------------------------*/
FoamFile
{
    version     2.0;
    format      ascii;
    class       volVectorField;
    location    "5";
    object      U;
}
// * * * * * * * * * * * * * * * * * * * * * * * * * * * * * * * * * * * * * //

dimensions      [0 1 -1 0 0 0 0];

internalField   nonuniform List<vector> 
918
(
(0.986806 -0.0064018 0)
(0.00535182 2.96622 0)
(-0.00921486 1.71804 0)
(0.971563 0.0160276 0)
(-0.0152846 1.68227 1.04518e-21)
(-0.00715244 2.94868 -2.25384e-18)
(1.08672 1.37486 6.21028e-19)
(0.553768 0.297568 -7.82808e-21)
(0.999122 -0.00382899 0)
(0.0167548 1.6356 0)
(0.0124915 1.65255 0)
(0.904266 0.0171751 0)
(0.0104182 2.93176 0)
(-0.00480007 2.7981 0)
(-0.0245861 3.22457 1.15628e-18)
(0.0200328 1.64311 -2.22203e-20)
(0.697272 0.140153 4.92899e-19)
(0.271855 1.93007 6.33178e-19)
(0.991178 0.0415918 0)
(-0.00157096 1.66699 0)
(0.252894 0.343392 -5.73567e-19)
(0.985531 0.00148167 0)
(0.987875 -0.00560568 0)
(0.955124 0.020167 0)
(0.853572 0.00190023 0)
(0.00189317 2.66702 0)
(-0.0113304 2.91202 8.05416e-19)
(-0.00383345 1.7244 0)
(-0.00344843 1.76437 0)
(-0.00161396 1.73617 0)
(0.0028697 1.78931 0)
(0.000798772 1.7027 -8.2863e-22)
(-0.00715255 1.6382 0)
(-0.0216335 2.98771 -8.03225e-23)
(-0.016452 3.00536 1.75138e-18)
(0.00221071 3.00048 0)
(0.949394 0.0117997 0)
(0.189022 0.297389 -2.79727e-19)
(0.975221 1.45561 -7.3434e-19)
(1.12051 1.17251 7.99975e-19)
(0.867091 1.65492 -1.45018e-19)
(0.977783 1.6021 8.6748e-19)
(0.599398 0.34719 7.63793e-21)
(0.582258 0.278132 0)
(1.23129 0.558817 0)
(0.580858 0.351835 3.66078e-20)
(0.531832 0.307241 -3.79847e-20)
(0.936319 0.00703419 0)
(0.998673 -0.00180372 0)
(1.00007 0.000847089 0)
(0.979794 -0.0117885 0)
(0.998515 -0.00327508 0)
(1.00096 -9.2685e-05 0)
(0.0387531 1.61358 -4.81503e-19)
(0.0155136 1.73634 0)
(0.0873858 1.67608 0)
(-0.014266 1.72145 0)
(-0.00195877 1.63327 0)
(0.00343644 1.64438 0)
(0.00337034 1.7121 0)
(-0.00532548 1.65267 0)
(0.00547607 1.71288 0)
(0.017008 1.64484 0)
(0.971128 0.00630423 0)
(0.948256 0.0113338 0)
(0.913943 0.00522734 0)
(0.930534 0.0286 0)
(0.887214 0.0181992 0)
(0.0139237 3.00016 8.32736e-19)
(0.0110757 3.00626 0)
(0.00598593 3.00337 0)
(0.0121134 2.99676 9.38715e-24)
(0.00832207 2.95915 -1.23765e-18)
(0.012076 2.98292 0)
(0.00961937 2.9039 0)
(0.0194201 2.92846 1.83843e-24)
(0.00778424 2.82428 0)
(0.017276 2.91574 0)
(-0.0310636 2.76257 0)
(0.277635 3.58674 0)
(-0.115463 3.68628 0)
(0.147881 3.30939 -1.07368e-18)
(0.000511678 3.02428 0)
(0.00140896 1.75458 0)
(0.00984792 1.70814 2.19219e-20)
(0.0167981 1.65159 -2.00376e-20)
(0.723739 0.173419 -1.70269e-19)
(0.696494 0.111321 -1.68675e-19)
(0.731376 0.204096 -5.12882e-19)
(0.670499 0.178212 -3.4535e-19)
(0.211473 1.34663 0)
(0.356108 1.99339 -6.43325e-19)
(0.482854 1.96719 1.09337e-18)
(0.989053 0.0370283 0)
(0.942446 0.0472263 0)
(0.99992 -0.00162995 0)
(0.991224 0.0114896 0)
(1.02374 0.037886 -8.23476e-19)
(0.983366 0.0140412 6.50158e-19)
(-0.00628724 1.71351 0)
(-0.0106599 1.65771 0)
(0.00573848 1.74316 0)
(-0.00120819 1.72554 0)
(0.0204077 1.66552 0)
(0.33259 0.383407 1.6964e-19)
(0.410614 0.332311 0)
(1.00176 0.0059077 0)
(0.985076 0.00673338 0)
(0.913126 -3.95055e-05 0)
(0.907037 0.00633476 0)
(0.900091 -0.00652536 0)
(1.09245 0.00147613 0)
(0.860009 0.068234 0)
(0.758337 0.0605598 6.43721e-19)
(-0.0551281 2.86503 5.15277e-19)
(0.0234319 2.91607 0)
(0.0414094 2.89544 0)
(-0.0311675 2.72908 0)
(-0.0102911 2.98552 7.62418e-19)
(-0.0134145 2.8957 0)
(-0.0124174 2.98895 -2.36366e-18)
(-0.0120461 2.93007 8.05555e-19)
(0.000290671 1.77548 0)
(-0.000425813 1.76576 0)
(0.00634189 1.71266 -1.08012e-22)
(-0.00983003 1.70039 0)
(-0.0048443 1.63997 0)
(0.985019 0.0111705 0)
(0.953891 0.00729752 0)
(0.935143 -0.0137894 0)
(0.975347 0.0134255 0)
(0.938243 -0.0080768 0)
(0.375649 0.714405 3.34427e-19)
(0.173739 0.712257 0)
(0.498818 0.626909 -2.99105e-20)
(0.291064 0.198215 0)
(1.05574 1.23894 -2.27553e-19)
(1.17552 0.94896 4.86423e-19)
(0.563069 1.96835 0)
(0.713612 1.84447 0)
(0.776984 1.84175 0)
(0.558326 0.975391 -3.50286e-19)
(0.656823 0.308479 0)
(0.638148 0.225939 9.75082e-20)
(1.1163 1.03372 0)
(1.17171 0.832114 0)
(1.21485 0.759507 -4.4616e-19)
(1.2121 0.635219 0)
(1.27297 0.404111 5.57591e-20)
(0.979114 -0.0124094 0)
(0.972962 0.00645277 0)
(0.944829 -0.00396051 0)
(0.985561 0.00799331 0)
(0.96806 0.0041758 0)
(0.946082 0.00306356 0)
(0.997417 0.00308201 0)
(0.998823 0.00298112 0)
(0.999588 0.00285084 0)
(0.0298722 1.63276 2.59798e-19)
(0.0626797 1.54568 0)
(0.00690973 1.67822 4.35402e-19)
(-0.00895566 1.6298 -3.77124e-19)
(0.199843 1.90222 -5.34219e-19)
(0.072771 1.75678 0)
(0.142075 1.75935 0)
(0.00551315 1.72533 0)
(0.0139728 1.63591 0)
(-0.00548362 1.69451 -1.17362e-21)
(0.000987461 1.64497 0)
(0.00499227 1.70327 -5.55106e-20)
(-0.0102777 1.65549 1.09418e-19)
(-0.0070499 1.71855 0)
(-0.0221236 1.71276 0)
(-0.0196544 1.64011 0)
(0.0113845 1.70599 0)
(0.00438621 1.6565 0)
(1.01398 -0.00640607 0)
(0.969679 0.0020968 0)
(1.00059 0.0169875 0)
(0.956325 0.0227476 0)
(0.92688 0.00562413 0)
(0.9678 0.00320679 0)
(0.969369 0.00505736 0)
(0.933829 -0.0152526 0)
(0.00706486 3.06054 -7.26751e-21)
(0.0140426 3.06023 0)
(0.012688 2.9702 0)
(0.00805877 2.87738 0)
(0.775704 3.92935 0)
(1.02852 3.25998 9.71866e-19)
(0.0898988 3.11608 0)
(-0.0299792 2.91592 0)
(-0.00654065 1.75254 0)
(-0.00311166 1.7541 0)
(-0.00256053 1.75175 0)
(0.00414587 1.7836 1.75042e-21)
(-0.00160684 1.75934 0)
(0.00650834 1.76942 0)
(-0.000517077 1.66369 -9.3301e-23)
(-0.0159788 1.71469 3.91835e-20)
(-0.00402466 1.72306 2.05667e-20)
(-0.0142583 1.65675 0)
(0.761109 0.129873 2.53262e-19)
(0.719232 0.0487376 -2.43603e-19)
(0.201387 1.42727 0)
(0.303255 1.29907 -2.17425e-19)
(0.131149 1.43581 -6.40991e-19)
(0.157902 1.38313 6.40477e-19)
(0.920288 0.00265934 0)
(0.9715 0.00104268 0)
(0.974161 0.0221647 0)
(0.929701 0.0105657 0)
(0.00642062 1.71735 0)
(-0.000241426 1.71041 0)
(0.00547961 1.65569 0)
(0.532369 0.383767 3.38742e-19)
(0.46284 0.393897 -4.4995e-19)
(0.486531 0.311526 0)
(1.19786 0.0809427 -6.45427e-21)
(1.18675 0.0464219 0)
(1.11734 0.0444701 0)
(1.03375 0.0136192 0)
(0.77719 0.0834355 0)
(0.783966 0.0763873 -1.02736e-18)
(0.748235 0.0195555 3.90026e-19)
(-0.00301577 2.97904 6.11467e-19)
(-0.0496242 2.8663 4.84929e-20)
(0.010936 3.047 -1.61608e-20)
(0.0172068 3.04287 5.99801e-19)
(-0.0128786 2.99712 2.67015e-20)
(-0.0118262 2.95107 -1.08883e-22)
(-0.015597 3.01264 -5.03905e-19)
(0.0136807 3.02703 3.54975e-19)
(0.00830381 3.03334 -5.69429e-19)
(0.999945 0.0156162 0)
(0.999941 0.00545228 0)
(0.959809 0.0114348 0)
(0.972847 -0.00718312 0)
(0.978761 -0.00915653 0)
(0.936241 -0.0238641 0)
(0.970662 0.0124244 0)
(0.969365 -0.00463922 0)
(0.930429 0.00203999 0)
(0.395135 0.998382 4.92508e-19)
(0.417019 1.15706 0)
(0.50155 0.602784 7.82958e-20)
(0.587707 0.814416 4.68508e-19)
(0.586106 0.690829 -1.36927e-19)
(0.377278 0.343189 2.01897e-19)
(0.511447 1.22027 1.6872e-18)
(0.525916 1.11875 3.47974e-19)
(0.692969 0.255728 3.75541e-19)
(0.669391 0.272002 8.89807e-20)
(0.642219 0.216268 1.88656e-19)
(1.26318 0.45787 3.18993e-19)
(1.28767 0.213017 3.43167e-19)
(-0.0242655 1.67434 1.7727e-19)
(-0.0137561 1.6213 0)
(1.05966 0.0261756 0)
(1.02693 0.018109 0)
(1.00741 0.00251366 0)
(0.0180465 3.07573 0)
(0.0179744 2.94432 1.03966e-18)
(0.0145176 2.95829 0)
(0.00869551 2.85054 -1.0312e-18)
(0.00995365 3.0893 2.52151e-19)
(0.00725865 3.08157 0)
(0.37993 1.48356 -2.2309e-19)
(1.03438 2.44193 6.97918e-19)
(0.379542 1.72331 -1.50084e-18)
(0.00991991 2.98539 -4.70868e-19)
(0.0437924 3.01814 0)
(-0.0464213 2.884 0)
(-0.0081241 1.69416 -8.89133e-21)
(0.00828226 1.71184 -7.66342e-20)
(0.00629936 1.6584 -7.6242e-21)
(0.265215 1.36284 6.91898e-19)
(0.355419 1.25773 -4.89421e-19)
(0.0497461 1.55947 4.20663e-19)
(0.082366 1.4978 -5.19327e-19)
(0.085669 1.43765 5.50985e-20)
(0.0144883 3.11013 -1.3933e-18)
(0.0175017 3.11347 1.52229e-18)
(-0.00362693 2.98064 6.97178e-19)
(-0.0109803 2.97986 -6.42347e-19)
(-0.0240952 2.8837 -7.10048e-19)
(0.0125684 3.09799 -1.87713e-18)
(0.0100466 3.10041 1.88795e-18)
(0.540671 1.09846 0)
(0.576795 0.968821 -1.42324e-18)
(0.55653 0.836754 6.43629e-19)
(0.429912 1.27603 9.59175e-19)
(0.457584 1.17279 -1.49288e-18)
(1.27192 0.167647 -6.35512e-20)
(1.27879 0.286232 0)
(1.27572 0.116572 1.3164e-19)
(0.00866667 1.69389 -1.48378e-21)
(-0.00524962 1.67882 0)
(0.0149049 1.62584 0)
(0.31839 1.32357 -2.52055e-19)
(0.369931 1.32225 -5.91069e-19)
(0.413459 1.21198 1.08546e-18)
(1.0083 -0.0413375 0)
(0.997846 -0.028998 1.62431e-19)
(0.00310765 1.77309 0)
(-0.00233495 1.77936 0)
(0.989867 -0.0057815 -7.22795e-22)
(1.009 -0.0101779 3.06557e-19)
(-0.00760478 1.78002 -2.20495e-21)
(-0.00629431 1.78102 0)
(0.0674457 3.20096 2.72582e-19)
(0.410252 3.65551 0)
(1.1138 0.64932 4.97149e-20)
(1.01082 -0.0044196 -4.13903e-21)
(1.00545 0.010361 0)
(1.0033 -0.0109637 -4.13576e-21)
(0.0265518 1.83916 0)
(0.0958818 1.70365 0)
(0.00998676 1.79017 0)
(0.00441191 1.76588 8.0557e-20)
(0.0156385 1.75509 4.0225e-20)
(0.99921 0.0105027 5.58779e-22)
(1.04163 -0.00682995 0)
(1.06013 0.0312872 0)
(-0.0099976 1.7554 0)
(-0.00924026 1.78873 0)
(-0.0127687 1.78941 0)
(0.210515 1.94325 -2.41665e-19)
(0.999318 -0.0421447 0)
(0.98661 -0.0413714 0)
(1.009 -0.00140203 2.06791e-19)
(0.998524 -0.00695178 -2.36606e-19)
(0.999214 0.0013916 0)
(-0.00516579 1.73944 0)
(0.0058749 1.75968 0)
(-0.00410907 1.75294 0)
(-0.00804317 1.7916 0)
(-0.00152635 1.77848 0)
(-0.00673576 1.78686 0)
(1.02129 0.00153302 0)
(1.01538 0.00644746 -1.547e-21)
(0.673991 1.49473 3.76441e-19)
(1.014 -0.00559486 -2.04895e-19)
(0.998353 0.00781716 2.51913e-19)
(0.998902 0.00799047 0)
(1.01014 0.0044974 1.98629e-19)
(0.982801 -0.0088657 -2.47317e-19)
(0.981974 -0.00701633 0)
(-0.00956785 1.7934 0)
(-0.0126287 1.78691 6.69755e-21)
(-0.0100986 1.79121 -3.11149e-21)
(1.15669 0.248059 -6.71697e-20)
(1.10112 0.0647744 0)
(0.0637607 3.05241 -7.77312e-19)
(0.0699861 2.87065 -5.8748e-20)
(0.191013 3.18058 1.1949e-18)
(0.159892 3.21993 -9.55166e-20)
(0.188445 3.31071 0)
(0.0268165 3.12888 1.85422e-19)
(0.101195 3.15064 7.6034e-19)
(0.0915645 3.19116 -3.62725e-19)
(0.023251 3.11499 0)
(0.707171 0.351097 0)
(0.647724 0.398777 0)
(0.986128 0.678443 -1.72154e-19)
(1.02718 0.854078 2.53903e-19)
(1.15146 0.564814 0)
(1.16541 0.550067 0)
(1.02292 -0.00671722 -3.81477e-19)
(1.02652 -0.00327308 4.73483e-19)
(1.02229 0.0107302 0)
(1.02398 0.00893569 0)
(1.01567 0.00300439 0)
(1.01629 0.00937083 0)
(1.03428 -0.0183725 0)
(1.02668 0.0165772 0)
(1.02514 0.0241438 0)
(1.03283 0.0173277 0)
(0.0201438 1.84192 0)
(0.0106617 1.84861 0)
(0.0529892 1.86814 0)
(0.0351027 1.87777 0)
(0.107096 1.69354 0)
(0.101114 1.67075 -2.832e-19)
(0.0705923 1.7334 0)
(0.0343218 1.71796 1.46503e-19)
(0.0346649 1.75839 -1.49559e-19)
(0.00876034 1.79288 0)
(-0.00211136 1.78837 0)
(0.00737779 1.79315 0)
(0.00352047 1.81491 0)
(-0.00487694 1.7595 -4.49023e-20)
(0.00899818 1.76548 5.72846e-20)
(0.00466885 1.77402 6.5845e-20)
(0.00984279 1.77077 0)
(0.0134065 1.77246 -7.88398e-20)
(0.0141054 1.77084 -5.27543e-20)
(-0.00391789 1.75652 3.5184e-20)
(0.00613317 1.76136 -7.47536e-20)
(0.00113923 1.76692 -8.08377e-20)
(1.00388 0.0219657 3.59199e-19)
(1.0041 0.0136573 -4.41793e-19)
(1.00021 -0.000117398 -3.74719e-19)
(0.980511 0.00342785 4.74113e-19)
(1.03979 0.00324341 0)
(1.04268 -0.0190524 0)
(1.05126 0.0248172 0)
(1.05486 0.00668055 0)
(1.07055 0.0183446 0)
(1.06717 0.0614399 0)
(1.07649 0.0316766 0)
(1.08241 0.0393954 0)
(-0.0113807 1.78216 -1.25222e-21)
(-0.0147388 1.76255 0)
(-0.0131089 1.76941 0)
(0.00361174 1.79112 8.73639e-21)
(-0.00123187 1.79424 -6.413e-22)
(0.0106198 1.71867 2.24284e-20)
(0.00308202 1.73068 -2.24565e-20)
(1.14378e-05 1.77022 0)
(0.00424363 1.76387 0)
(0.00174629 1.76103 0)
(-0.00666254 1.78779 0)
(-0.000184142 1.78468 0)
(0.359561 1.9301 4.06816e-19)
(0.346854 1.94394 1.87945e-19)
(0.3031 1.55601 -1.72532e-19)
(0.116129 1.57247 4.46599e-19)
(0.260286 1.6513 1.08103e-19)
(1.00028 0.00779877 0)
(0.982192 -0.030907 0)
(0.981955 -0.0196176 0)
(1.04077 -0.0109878 0)
(1.01313 -0.0201138 0)
(1.00053 -0.0228418 0)
(0.980318 0.00410689 0)
(1.00867 0.0335215 0)
(1.00949 0.0105283 3.48759e-19)
(1.01762 0.0167757 -4.50999e-19)
(1.01544 -0.00708708 -3.49162e-19)
(1.0184 -0.0101588 4.40918e-19)
(0.661826 1.58957 0)
(0.565352 1.71015 3.16871e-19)
(0.781731 1.3094 1.69236e-19)
(0.822608 1.26602 -2.22496e-19)
(0.815583 2.18556 -9.10096e-19)
(0.848871 0.112838 2.45471e-19)
(1.11359 0.0764883 0)
(1.09453 0.172014 4.22458e-20)
(1.16278 0.13955 4.73484e-21)
(0.963614 0.107623 0)
(0.218949 2.96767 8.56023e-20)
(0.15811 2.86592 -1.02026e-18)
(0.0269297 2.3562 7.04082e-19)
(0.184898 0.195372 -2.90184e-19)
(0.346177 3.54855 -5.53099e-19)
(0.23438 3.36594 0)
(0.276239 3.50625 7.20325e-19)
(0.290227 3.0995 -6.96202e-19)
(0.423352 3.32321 0)
(0.0135615 3.11114 3.92868e-20)
(0.0247855 3.12428 -4.60482e-19)
(0.0215059 3.12252 6.77691e-19)
(0.0437469 3.13158 0)
(0.0433248 3.1457 0)
(0.874897 2.39841 0)
(0.432335 0.594504 6.95867e-22)
(0.94211 1.06098 -1.24792e-19)
(0.912356 1.09647 0)
(0.697393 1.01002 3.4857e-20)
(0.981912 0.862589 1.62987e-20)
(0.481056 0.545186 -5.89601e-19)
(0.71282 0.337032 -2.05569e-20)
(0.722526 0.308924 1.80701e-19)
(0.63258 0.431402 1.55499e-20)
(0.599173 0.433674 -6.59503e-19)
(0.704411 0.360348 0)
(0.705622 0.414941 2.8783e-19)
(0.705509 0.405208 0)
(0.668072 0.384199 0)
(0.675642 0.374885 0)
(0.746992 0.581904 7.35702e-20)
(1.2001 0.278749 1.02659e-19)
(1.13925 0.423845 0)
(1.18762 0.408859 0)
(0.794076 0.229905 2.94683e-19)
(0.766579 0.474673 -1.47396e-19)
(0.732985 0.435236 2.28767e-19)
(0.871335 0.420158 -2.28366e-19)
(1.01889 0.0114615 2.42658e-19)
(1.02675 -0.00616656 -2.46391e-19)
(1.02442 0.00180849 0)
(1.01981 -0.000694824 0)
(1.02584 -0.00207444 -2.36136e-19)
(1.02351 -0.0131647 2.35665e-19)
(1.01132 -0.00859227 0)
(0.999798 0.000204458 0)
(1.01996 0.00183856 0)
(1.02407 -0.0100069 0)
(1.01882 0.0066528 0)
(1.01705 0.0111974 0)
(0.00874611 1.84602 0)
(0.0102645 1.83978 0)
(0.132067 1.85923 2.73423e-20)
(0.215645 1.93797 1.30406e-19)
(0.0945058 1.933 2.94152e-19)
(0.11708 1.97048 -4.77249e-19)
(0.17282 1.88041 0)
(0.167358 1.73885 -1.10338e-19)
(0.144518 1.76904 0)
(0.262719 1.65652 -1.54964e-19)
(0.183424 1.61259 5.26151e-19)
(0.197987 1.77609 9.69248e-20)
(0.224301 1.85758 4.27142e-20)
(0.202429 1.85661 -3.43359e-20)
(0.272402 1.80508 -6.47111e-20)
(0.227023 1.75507 0)
(0.226519 1.75406 6.35524e-20)
(0.0423679 1.77281 -4.35763e-20)
(0.0162367 1.7421 0)
(0.0299747 1.72188 1.80772e-19)
(0.0337381 1.73885 0)
(0.015154 1.71615 -1.63362e-19)
(-0.000950312 1.72229 0)
(0.000909717 1.76419 -3.04063e-20)
(-0.000368787 1.76225 0)
(0.0106217 1.7619 0)
(0.0113917 1.75989 3.38281e-20)
(0.00700404 1.76732 -2.062e-21)
(0.0290151 1.77433 1.77418e-19)
(0.0144319 1.77435 1.21452e-21)
(-0.00934683 1.75493 2.66297e-20)
(-0.0111918 1.753 1.8883e-20)
(-0.00509869 1.78726 0)
(-0.0123415 1.77777 0)
(0.00774715 1.76206 8.82969e-20)
(0.0177157 1.75552 7.06066e-20)
(0.0107096 1.75334 -9.47839e-20)
(0.0223499 1.76563 0)
(0.0185468 1.76175 -3.83592e-20)
(0.014112 1.7557 1.91252e-20)
(0.00429618 1.75073 -6.16143e-21)
(-0.00973353 1.7531 -3.25465e-20)
(0.00874664 1.75984 -1.15926e-20)
(0.0117123 1.76797 4.33889e-20)
(1.01829 -0.00647762 -2.28753e-19)
(1.00844 0.013756 2.298e-19)
(1.01412 0.00125281 0)
(0.972375 0.0622458 3.39679e-19)
(0.974267 0.0186434 -3.9055e-19)
(0.937547 0.0206972 4.61343e-19)
(0.972163 0.0580827 -4.34012e-20)
(1.03949 0.0087562 0)
(1.04078 -0.0130089 1.97711e-19)
(1.04384 -0.003099 -1.9752e-19)
(1.0024 0.035617 -1.17209e-20)
(1.01725 0.0188607 1.06617e-19)
(0.976434 0.0349046 0)
(0.967849 0.0258623 -3.71286e-20)
(1.01829 0.0320782 0)
(1.00063 0.0300111 0)
(1.01516 0.000472672 0)
(1.01849 -0.00444564 0)
(1.00424 0.0159791 8.1879e-20)
(1.00187 0.0168785 -1.63569e-19)
(0.949411 0.00980401 -8.34204e-20)
(0.950647 0.0141507 -9.50085e-20)
(0.992656 0.0679334 1.39674e-19)
(1.06166 0.0567631 0)
(1.0437 0.0869331 0)
(0.0173186 1.7638 -2.66954e-20)
(-0.009449 1.75844 -1.97842e-21)
(0.00833443 1.74235 0)
(-0.0045215 1.78118 2.73581e-20)
(-0.0134523 1.78358 2.92897e-21)
(-0.0129215 1.78525 -2.81751e-21)
(0.0133008 1.77033 4.55921e-20)
(0.000201412 1.75216 -2.83023e-21)
(0.000867636 1.75555 1.47294e-20)
(0.0108677 1.77661 -2.85836e-20)
(0.0047153 1.76744 3.26204e-20)
(0.0126022 1.73665 2.6146e-21)
(0.0244186 1.72392 3.07008e-20)
(0.36577 1.80778 -1.75106e-19)
(0.276693 1.79931 6.91212e-20)
(0.583798 1.78548 -3.05791e-19)
(0.489542 1.90358 -1.81667e-19)
(0.481027 1.88096 0)
(0.344687 1.55548 1.76314e-19)
(0.353593 1.53744 2.57263e-19)
(0.176798 1.57983 3.65247e-20)
(0.16836 1.57819 -5.92108e-19)
(0.24288 1.57591 4.645e-19)
(0.271564 1.58956 0)
(0.202517 1.58227 -3.78963e-19)
(0.104616 1.65376 7.26261e-19)
(0.0966177 1.599 -5.6942e-20)
(0.0545378 1.61542 -1.01195e-18)
(0.744625 1.47561 8.49015e-19)
(0.519234 1.51192 0)
(1.03604 -0.00958828 6.67565e-21)
(1.03081 0.0437217 -5.77529e-21)
(1.02571 0.0409155 -1.11189e-19)
(1.01216 0.017163 1.16876e-19)
(1.01926 0.00288342 0)
(0.441742 1.54675 0)
(0.349423 1.4272 0)
(0.551578 1.13874 0)
(0.30176 1.32887 0)
(0.808614 2.12289 2.20009e-19)
(0.893546 1.86346 0)
(0.570521 2.0116 6.48633e-21)
(0.520619 1.6715 0)
(0.630217 1.71273 -6.2582e-19)
(0.630514 1.79974 3.9095e-19)
(0.868116 0.135816 0)
(0.845597 0.166609 7.06228e-20)
(0.928945 0.087185 3.42465e-19)
(0.859998 0.0921555 -1.34784e-19)
(0.842171 0.0618438 -4.43118e-19)
(0.984045 0.190697 -1.73831e-19)
(0.923333 0.260026 -1.08313e-20)
(0.813495 0.268305 3.25189e-19)
(0.935202 0.222106 2.25374e-19)
(0.936773 0.146621 -4.2202e-19)
(0.906533 0.14262 5.45746e-20)
(0.877287 0.229748 -1.04397e-19)
(0.912936 0.188601 0)
(0.951614 0.163981 2.01788e-19)
(0.949974 0.156338 0)
(0.956542 0.211083 0)
(1.07981 0.114725 6.52719e-20)
(0.976323 0.132262 -1.12646e-20)
(0.985817 0.178365 -3.74986e-20)
(1.02918 0.201725 0)
(1.02029 0.0392862 1.69552e-19)
(1.01354 0.0386061 2.10045e-19)
(1.02022 0.0511537 -1.65201e-19)
(1.03168 0.055988 -1.41728e-19)
(0.987702 0.0690278 -2.4387e-19)
(0.948265 0.0576416 0)
(0.945721 0.0493411 0)
(0.929458 0.072568 -1.67982e-19)
(0.908015 0.0760623 7.22097e-20)
(1.01498 0.0926917 1.87468e-19)
(0.986077 0.0977663 -2.05934e-19)
(0.992161 0.105848 1.84928e-19)
(0.992152 0.123624 0)
(1.00007 0.0899695 0)
(1.00618 0.0978325 -7.51617e-20)
(1.02141 0.0985385 -1.46344e-19)
(0.0529793 1.80318 1.77072e-19)
(0.17277 2.42221 -1.68633e-19)
(0.654513 2.74065 1.43171e-19)
(0.80014 3.17286 -1.31529e-19)
(0.885737 2.48681 1.09169e-18)
(0.907056 2.55322 -4.49383e-19)
(0.918702 1.92976 -6.31646e-20)
(0.765486 2.97097 3.63352e-19)
(0.781346 2.87051 -4.04093e-19)
(0.841226 3.32831 -3.04473e-19)
(1.10956 2.98554 4.18227e-19)
(1.14327 2.84528 0)
(0.485702 0.593275 3.13857e-20)
(0.488046 1.21433 3.86161e-19)
(0.517497 0.613856 3.60177e-19)
(0.498647 0.412634 5.07911e-19)
(0.587095 0.449123 3.67495e-19)
(0.586436 0.468911 -5.3284e-19)
(0.566859 0.528953 4.2812e-19)
(0.529838 0.487688 -2.12321e-19)
(0.541462 0.48148 4.78885e-19)
(0.791674 0.256353 -1.66111e-19)
(0.762957 0.288838 0)
(0.772548 0.279242 1.0103e-20)
(0.701325 0.480428 1.41931e-19)
(0.669674 0.445228 -5.33966e-19)
(0.601594 0.482663 3.60008e-20)
(0.649883 0.467251 0)
(0.610215 0.580116 3.20098e-20)
(0.667131 0.78052 5.59531e-20)
(0.611272 0.736351 -6.77665e-20)
(0.71247 0.745399 -2.6697e-20)
(0.806991 0.876996 9.34978e-21)
(0.793205 0.860002 -9.56153e-21)
(0.774111 0.542955 -1.47752e-19)
(0.842883 0.602406 2.4939e-20)
(0.908489 0.6917 0)
(0.906262 0.655703 -2.07316e-20)
(0.967395 0.32143 4.72591e-20)
(1.10301 0.304112 -3.70234e-20)
(1.00469 0.231159 6.90857e-20)
(0.939294 0.35634 -1.12128e-19)
(0.947873 0.402349 0)
(0.992433 0.383333 0)
(0.847168 0.334451 7.4303e-21)
(0.796595 0.310972 0)
(0.827071 0.29032 1.69694e-19)
(0.817623 0.272914 -1.01717e-20)
(0.85816 0.420937 6.24291e-19)
(0.821864 0.479184 1.59768e-19)
(0.826308 0.449223 -2.09014e-19)
(0.772236 0.381911 2.24381e-19)
(0.734744 0.395693 1.49599e-19)
(0.712899 0.408856 -1.46318e-19)
(1.00628 0.0322921 1.85966e-19)
(1.00536 -0.0262354 0)
(0.999494 0.0177269 1.28226e-19)
(1.01287 0.0288145 -2.80047e-19)
(1.00863 -0.00739242 1.36149e-19)
(1.01099 0.035698 -2.86662e-19)
(1.0069 0.00574045 0)
(1.00072 -0.0167694 -6.19603e-20)
(1.00588 0.00747628 1.54549e-19)
(1.00873 0.00480331 -7.9421e-20)
(0.997507 -0.00643608 5.9401e-20)
(0.00572534 1.82096 0)
(0.0118199 1.76289 0)
(0.0111644 1.8347 0)
(0.00974729 1.83031 0)
(0.032521 1.76622 6.33521e-20)
(0.0319368 1.80023 -2.54872e-20)
(0.0655517 1.79431 -2.12122e-20)
(0.0549476 1.79327 -3.07696e-20)
(0.020317 1.76297 -6.40964e-20)
(0.0193029 1.76335 4.70266e-20)
(0.0313697 1.76589 -2.55233e-20)
(0.0154512 1.78187 -2.2929e-20)
(0.0186943 1.78193 -1.23483e-21)
(0.0110541 1.7719 -6.32428e-21)
(0.0357557 1.7229 -1.95003e-19)
(0.0564868 1.72772 0)
(0.053786 1.72383 1.19469e-19)
(0.101974 1.77301 7.48463e-20)
(0.18948 1.71682 -7.69558e-20)
(0.132847 1.66585 0)
(0.121417 1.64381 -5.20839e-19)
(0.174696 1.65098 3.82765e-19)
(0.179053 1.72388 -2.31917e-19)
(0.11421 1.70649 1.23457e-19)
(0.102531 1.68389 0)
(0.0134704 1.76381 -1.02159e-19)
(0.00510409 1.75496 -1.58281e-19)
(0.00376638 1.75582 0)
(0.0284758 1.76583 -3.98086e-21)
(0.0417136 1.7697 4.92636e-20)
(0.00426412 1.783 5.74812e-21)
(0.00607379 1.78892 -8.8728e-20)
(0.00224851 1.78659 2.22129e-20)
(-0.00534913 1.76893 3.47346e-20)
(0.00188873 1.76479 0)
(-0.00448827 1.7884 0)
(0.000901191 1.78614 3.02685e-20)
(-0.00142796 1.78988 -9.06106e-21)
(-0.00349587 1.7879 0)
(-0.00618452 1.7806 2.74227e-20)
(-0.00336796 1.78012 -5.2693e-20)
(0.983417 0.0302289 0)
(1.00759 0.0552778 -1.75978e-20)
(1.02141 0.00501186 -1.16559e-19)
(1.03015 0.00869363 0)
(1.03727 0.0477657 0)
(0.99546 -0.0130134 -1.61638e-20)
(0.989724 -0.00538057 2.01337e-19)
(1.00605 0.00847146 2.6104e-19)
(1.01568 0.0136894 0)
(1.01171 0.0122252 0)
(1.00683 0.0120206 1.34752e-19)
(1.00302 0.0155087 0)
(1.00026 0.0183778 0)
(0.0161853 1.73847 0)
(0.0263351 1.74696 -2.37568e-21)
(0.018136 1.76281 8.5692e-21)
(0.00123567 1.78555 0)
(0.0037587 1.75049 1.35251e-20)
(0.00693648 1.754 -1.31765e-20)
(-0.000854794 1.78731 0)
(0.405687 1.67146 0)
(0.29668 1.77378 -1.81579e-19)
(0.258321 1.73215 0)
(0.412522 1.75349 1.20262e-19)
(0.437021 1.79065 0)
(0.424772 1.80401 -8.35685e-21)
(0.753667 1.6337 -1.97984e-20)
(0.772098 1.4605 -1.01725e-18)
(0.825679 1.44132 1.17798e-18)
(0.577877 1.51168 2.61018e-19)
(0.52768 1.56447 0)
(0.608755 1.58122 0)
(0.710189 1.48356 0)
(0.638926 1.49804 -9.25329e-19)
(0.396166 1.64269 -5.05527e-19)
(0.47094 1.56852 -1.32086e-19)
(0.512823 1.62456 1.10199e-19)
(0.388895 1.53498 0)
(0.473979 1.53441 0)
(0.405797 1.53559 -3.048e-19)
(0.459722 1.58169 0)
(0.213619 1.17219 0)
(-0.001429 0.86928 5.69231e-19)
(0.315699 0.681846 4.05579e-20)
(-0.116335 1.46196 0)
(-0.0425802 1.54999 -8.30367e-19)
(0.615149 0.756493 7.74422e-21)
(0.602485 1.04185 0)
(0.657667 0.992551 -3.993e-20)
(0.51232 0.804381 0)
(0.553816 0.79705 0)
(0.781056 2.22464 7.89213e-21)
(0.655489 2.56827 -1.62692e-19)
(0.454964 2.38397 2.91339e-19)
(0.50784 2.20711 -1.33284e-19)
(0.842536 1.99008 0)
(0.846381 1.89075 1.72922e-19)
(0.901989 1.79172 -4.31375e-20)
(0.926034 1.61932 -9.90944e-21)
(0.459383 1.84802 0)
(0.176542 1.782 -1.55057e-19)
(0.274674 1.72736 0)
(0.888496 0.208216 0)
(0.847241 0.165527 0)
(0.81181 0.176489 0)
(0.8688 0.229784 -2.67192e-19)
(0.809956 0.213571 1.72335e-19)
(0.901088 0.0849602 -1.48887e-19)
(0.91731 0.0808471 0)
(0.922541 0.0794133 6.54601e-20)
(0.873756 0.0658968 2.69831e-19)
(0.878338 0.0784485 -1.64592e-19)
(0.900299 3.45828 -7.71807e-19)
(0.876762 3.40509 0)
(0.940739 3.45751 -1.85304e-18)
(0.55713 3.66952 1.81334e-18)
(0.713852 3.30417 7.43581e-19)
(0.492671 0.702017 -6.6663e-19)
(0.224088 1.10982 0)
(0.725845 0.463788 -4.01562e-20)
(0.63582 0.473411 -1.14587e-21)
(0.608373 0.606485 -1.04229e-19)
(0.616719 0.522253 7.90756e-20)
(0.62254 0.519768 1.99806e-19)
(0.678801 0.499475 0)
(0.651727 0.563014 0)
(0.619136 0.527495 0)
(0.974363 0.570438 -3.07396e-20)
(0.813181 0.471005 -1.54699e-19)
(0.786472 0.531329 7.58022e-20)
(0.875694 0.487893 -1.12446e-19)
(0.976345 0.413623 0)
(1.04028 0.521294 -5.519e-21)
(0.775633 0.366733 -3.4546e-19)
(0.800308 0.360478 -3.86762e-19)
(0.745442 0.372336 2.70552e-19)
(0.745872 0.344649 -3.01448e-19)
(0.780164 0.332453 -2.29555e-19)
(0.748417 0.334293 2.82515e-19)
(1.0179 -0.0175143 -1.37667e-19)
(1.02349 -0.0138705 2.73034e-19)
(0.998473 0.0272183 1.81542e-19)
(0.99872 0.0428191 -2.16698e-19)
(0.971574 0.0393157 0)
(0.987055 -0.0147139 -3.23881e-19)
(0.0485436 1.7878 2.49134e-20)
(0.0441787 1.76583 0)
(0.0490599 1.77938 2.07316e-19)
(0.0706326 1.7898 -1.8464e-19)
(0.0450242 1.79637 3.8792e-20)
(0.0437099 1.76309 0)
(4.59091e-05 1.74238 0)
(-0.00103632 1.77224 -9.42825e-21)
(-0.000307627 1.78161 8.49902e-21)
(-0.00256827 1.7701 3.95735e-21)
(0.00453188 1.73596 -1.61928e-20)
(0.0035677 1.742 1.00728e-20)
(0.455984 1.76396 -5.88915e-19)
(0.437417 1.70149 6.16778e-19)
(0.405145 1.71774 -1.25561e-19)
(0.432905 1.70837 2.4833e-20)
(0.464799 1.62865 0)
(0.468668 1.76686 1.39774e-19)
(0.466901 1.72244 -1.36894e-19)
(0.411865 1.7297 1.22677e-19)
(0.415999 1.72128 0)
(0.383536 1.723 0)
(0.36877 1.58342 7.80298e-19)
(0.391781 1.56404 1.22209e-18)
(0.416476 1.58047 -8.31214e-19)
(0.370641 1.58081 -1.49125e-19)
(0.308963 1.58853 2.40651e-19)
(0.238661 1.57595 -6.00752e-19)
(0.861532 1.44825 -6.51968e-19)
(0.925616 1.5461 0)
(0.895162 1.46631 -5.15315e-19)
(0.810098 1.77216 0)
(0.814153 1.6899 0)
(0.583237 2.85057 8.53099e-19)
(0.744619 3.36435 8.79976e-19)
(0.680605 3.31301 -8.01668e-19)
(0.620717 1.0787 0)
(0.686036 0.9951 1.79487e-19)
(0.598591 0.959843 5.91857e-19)
(0.639922 2.58503 0)
(0.658748 3.0078 -5.8416e-19)
(0.565088 2.7434 0)
(0.625757 0.534028 -7.67687e-20)
(0.699635 0.631319 1.90009e-19)
(0.687178 0.639892 -1.986e-19)
(0.662348 0.526375 -1.75109e-20)
(0.6829 0.558596 -9.07937e-20)
(0.601046 3.15684 -6.26184e-19)
(0.598253 3.09916 6.5068e-19)
(0.543836 2.81829 -1.25341e-18)
(0.371014 2.67489 7.90826e-19)
(0.188142 2.54354 2.57698e-19)
(0.465393 2.91345 -1.71094e-19)
(0.402245 2.75866 -2.89851e-19)
(0.306079 2.61893 -3.70395e-20)
(0.186162 2.57304 -2.49315e-20)
)
;

boundaryField
{
    wall-4
    {
        type            noSlip;
    }
    velocity-inlet-5
    {
        type            fixedValue;
        value           uniform (1 0 0);
    }
    velocity-inlet-6
    {
        type            fixedValue;
        value           uniform (0 3 0);
    }
    pressure-outlet-7
    {
        type            zeroGradient;
    }
    wall-8
    {
        type            noSlip;
    }
    frontAndBackPlanes
    {
        type            empty;
    }
}


// ************************************************************************* //
