/*--------------------------------*- C++ -*----------------------------------*\
  =========                 |
  \\      /  F ield         | OpenFOAM: The Open Source CFD Toolbox
   \\    /   O peration     | Website:  https://openfoam.org
    \\  /    A nd           | Version:  6
     \\/     M anipulation  |
\*---------------------------------------------------------------------------*/
FoamFile
{
    version     2.0;
    format      ascii;
    class       volScalarField;
    location    "6";
    object      p;
}
// * * * * * * * * * * * * * * * * * * * * * * * * * * * * * * * * * * * * * //

dimensions      [0 2 -2 0 0 0 0];

internalField   nonuniform List<scalar> 
918
(
0.205599
1.099
0.00253447
0.197654
3.49039e-05
1.06725
-0.676296
0.416503
0.184305
-0.117081
0.0239315
0.182437
0.928288
0.690556
-1.42842
0.0265886
0.349727
-0.738551
0.163781
0.0167993
0.586909
0.197706
0.198842
0.187962
0.237614
0.67041
0.805487
0.00156608
0.00093969
0.000845924
-0.00197256
-0.00262637
0.00474537
0.950523
1.00246
1.02533
0.160016
-0.459724
-0.528097
-0.626992
-0.545287
-0.729496
0.397021
0.399602
-0.480571
0.421225
0.442684
0.174553
0.182607
0.181419
0.190243
0.184733
0.187
0.273821
-0.135261
-0.203554
-0.0517962
-0.0306689
0.0792854
0.0251942
0.0351642
0.0242541
0.033112
0.124402
0.175315
0.17256
0.183827
0.191955
1.03926
1.01143
1.03755
0.953268
0.968971
0.905827
0.880068
0.712974
0.736264
0.674413
0.66333
-1.94616
-2.95386
-0.803559
-0.504974
0.00318005
0.0280766
0.0132519
0.337236
0.341586
0.347387
0.362669
0.675845
-0.665685
-0.896113
0.179161
0.177176
0.186955
0.186935
0.168729
0.176758
0.0212276
0.0212533
0.00716471
0.0123218
0.0164633
0.557287
0.53575
0.176171
0.169025
0.203028
0.215925
0.203222
-0.0370378
0.242679
0.279493
0.500883
0.663758
0.65414
0.659752
0.779219
0.746968
0.839258
0.86184
0.00819416
0.0012137
0.018649
0.00674015
0.0185461
0.151639
0.147801
0.169638
0.167249
0.161766
-0.432355
-0.450395
-0.438277
-0.35793
-0.479094
-0.570095
-0.696024
-0.625027
-0.838837
0.713782
0.375837
0.377362
-0.440724
-0.384107
-0.517719
-0.359184
-0.437972
0.162306
0.170405
0.167116
0.168837
0.174229
0.176569
0.183927
0.18163
0.183294
0.294289
0.354439
0.241212
0.225655
-0.435661
-0.216306
-0.404596
-0.0196231
-0.00584596
0.0954403
0.117679
0.0777534
0.0780035
0.00727148
0.0256863
0.00739635
0.0337767
0.030797
0.11088
0.10595
0.131855
0.139126
0.165545
0.170454
0.166791
0.166564
0.829803
0.855372
0.861222
0.835541
-3.99091
-6.5672
-0.0947113
0.0486565
0.000930247
0.000392421
0.00173572
0.000357042
0.00520711
0.00182917
0.0510894
0.0413723
0.0278459
0.0394231
0.318981
0.323526
0.662948
0.725587
0.616641
0.602706
0.174201
0.172712
0.173682
0.161644
0.0277579
0.0238416
0.0206429
0.450825
0.500382
0.483699
-0.0810651
-0.162036
0.012259
0.0359234
0.305625
0.289154
0.29665
0.559656
0.603104
0.879058
0.901059
0.885966
0.896293
0.943973
0.964361
0.933367
0.141171
0.14299
0.140382
0.172996
0.167811
0.166458
0.163755
0.16689
0.16987
-0.513935
-0.75223
0.309203
0.14761
-0.22041
-0.0268394
0.719626
0.769682
0.357815
0.367116
0.373861
-0.304856
-0.378188
0.196673
0.16997
0.0607288
0.0954356
0.0739614
0.805004
0.761119
0.812542
0.786108
0.750255
0.774926
-0.603618
-2.36769
-1.28191
0.44162
0.235011
0.327439
0.0632356
0.0529587
0.0507941
0.71583
0.769945
0.382888
0.507302
0.485334
0.633306
0.664026
0.721555
0.648957
0.685456
0.721277
0.698851
0.624356
0.444005
0.568544
0.75956
0.804223
-0.181793
-0.26969
-0.296721
0.125098
0.145808
0.124815
0.752912
0.763282
0.77584
0.173199
0.179188
0.0140024
0.0199409
0.181352
0.174587
0.00426403
0.0026767
0.331902
-1.29231
-0.175492
0.177958
0.168376
0.182758
-0.0482566
0.247281
0.0284688
0.0900918
0.0646398
0.172528
0.130368
0.0998812
-0.00331038
0.0200746
0.0167278
-0.277445
0.170206
0.166221
0.181452
0.180546
0.182707
0.00571912
0.0118123
0.00583256
0.0155514
0.0164381
0.0134648
0.154689
0.162563
-0.249831
0.177089
0.180529
0.181068
0.180023
0.181592
0.185211
0.0151278
0.011768
0.0113177
-0.0550399
0.0451891
0.55848
0.649987
0.518944
0.327168
0.0813419
0.481525
0.534117
0.446853
0.595261
0.35377
0.397799
-0.0723975
-0.204662
-0.125286
-0.16134
0.17069
0.170576
0.162019
0.160127
0.169898
0.179486
0.169094
0.17802
0.177795
0.174597
-0.00831536
-0.0208349
-0.0729735
-0.135759
0.280159
0.335293
0.200768
0.218761
0.143147
0.0397093
0.0310322
0.0288733
0.0244864
0.0643545
0.0667046
0.0739655
0.0742479
0.0513566
0.0526986
0.0617619
0.0604952
0.0657165
0.170377
0.166354
0.172896
0.178993
0.133702
0.140808
0.11434
0.12899
0.111002
0.0750893
0.0880385
0.0728175
0.00592848
0.00127793
0.00540413
0.0176029
0.0322327
0.0291761
0.0155856
0.0181176
0.0119751
0.0105198
0.0234285
0.0280954
-0.242742
-0.360105
0.635624
0.544853
0.314404
0.177527
0.175339
0.16991
0.160911
0.174263
0.18629
0.184118
0.172672
0.165937
0.166969
0.163768
0.163465
-0.145488
-0.310776
-0.163974
-0.273048
-0.502693
0.2879
0.0408452
0.00886882
-0.0276911
0.173598
0.691094
0.550713
0.602297
0.577672
-0.674682
-0.0812854
-0.519754
0.141358
-0.0403282
0.566332
0.616018
0.639528
0.587502
0.540464
-0.355272
0.0264776
-0.268129
-0.219515
-0.139504
-0.198214
0.507177
0.336743
0.346975
0.390471
0.42553
0.345743
0.322237
0.320957
0.368131
0.370819
0.138453
-0.0534548
-0.0754928
-0.140355
0.33272
0.196163
0.243739
0.171179
0.168949
0.169818
0.173658
0.162084
0.162319
0.168189
0.16399
0.166587
0.174859
0.166917
0.169607
0.176839
-0.012014
-0.0118828
-0.0746863
-0.182617
-0.176725
-0.238827
-0.129696
0.134601
0.106931
0.283128
0.367662
0.0575978
-0.0970802
-0.0688459
0.0166352
0.137931
0.148736
0.107865
0.157364
0.165792
0.138654
0.194248
0.190567
0.0437945
0.055988
0.0392277
0.0304225
0.0991853
0.113049
0.11194
0.0469542
0.0497658
0.0363517
0.0364419
0.0739176
0.0513166
0.0610934
0.0705715
0.0207408
0.0209302
0.0334684
0.0390132
0.034696
0.0375934
0.16559
0.165291
0.170999
0.183378
0.184386
0.204065
0.178875
0.147868
0.142111
0.142715
0.134245
0.147718
0.139539
0.152265
0.154774
0.165061
0.161666
0.164145
0.156283
0.150756
0.154528
0.162939
0.124765
0.099884
0.1003
0.0187714
0.0192519
0.0282343
0.0143415
0.0135414
0.0142297
0.0463666
0.0387342
0.0392259
0.0376299
0.0434904
0.0267034
0.025638
-0.105297
0.0134019
-0.241443
-0.280296
-0.350757
0.623575
0.689591
0.540428
0.460823
0.482945
0.567048
0.59648
0.375947
0.463176
0.455067
0.618772
0.695358
0.158749
0.167066
0.169002
0.164793
0.167899
-0.0229077
0.00203269
-0.120474
-0.104855
-0.346275
-0.414118
0.350073
0.478169
0.443464
0.26347
0.275642
0.294321
0.237641
0.270314
0.274067
0.102135
0.171785
0.22825
0.168777
0.21721
0.237811
0.203434
0.231332
0.183851
0.150999
0.145239
0.0921265
0.11407
0.0976362
0.0778336
0.164193
0.14953
0.151495
0.146835
0.170781
0.202652
0.189936
0.204741
0.224468
0.154899
0.129099
0.132481
0.149223
0.122452
0.123509
0.13671
-0.374309
-0.381739
-0.330835
-0.802459
-0.650002
-0.441101
-0.556259
-0.741588
-0.494365
-1.07277
-0.743336
-1.37623
-0.181321
0.752798
0.48543
0.54145
0.429299
0.403663
0.410696
0.467018
0.464841
0.321198
0.327561
0.335547
0.265921
0.306376
0.364964
0.350318
0.0380461
0.0434669
-0.020506
0.011996
-0.116175
-0.0834675
0.0993978
0.0542377
-0.0117506
0.00446006
0.133283
0.0172628
0.0833971
0.133242
0.116843
0.052044
0.2187
0.285319
0.267437
0.252588
0.167479
0.178389
0.205883
0.244555
0.264636
0.297201
0.156219
0.164901
0.170137
0.164012
0.158669
0.163845
0.166132
0.167623
0.165875
0.169261
0.171509
0.0257158
0.033017
0.0103162
0.0211622
0.0343865
0.0024184
0.0577783
-0.00881901
0.0452757
0.0513675
0.0371047
0.00859046
0.0162629
0.0304088
0.153405
0.171829
0.17567
0.128183
0.219875
0.34492
0.371911
0.322469
0.205502
0.24014
0.292871
0.0792205
0.0912776
0.0765856
0.099222
0.0892083
0.0388208
0.0354975
0.0344302
0.0434038
0.0426376
0.033082
0.0296172
0.0274753
0.0328477
0.0366231
0.0335332
0.14965
0.140333
0.131876
0.121087
0.125669
0.147012
0.151747
0.154808
0.161073
0.164141
0.15611
0.163532
0.164284
0.0365528
0.019795
0.024609
0.0279231
0.020758
0.0267292
0.0280197
0.249508
0.114277
0.224515
0.078506
-0.158468
-0.0650033
0.396359
0.557257
0.494859
0.649767
0.598215
0.524317
0.542516
0.660545
0.389465
0.567552
0.504719
0.658186
0.648895
0.699283
0.571522
-0.194097
-0.559775
-0.328057
-0.45082
-0.638081
-0.0964924
-0.131659
-0.118574
-0.171573
-0.209825
-0.0924788
-0.0471104
-0.0133159
0.236454
-0.00158781
0.208604
-0.23107
-0.163489
0.221728
-0.0737478
0.0562978
0.275076
0.295353
0.314111
0.283986
0.3143
0.23111
0.232658
0.240907
0.25037
0.234017
-1.15699
-1.01972
-1.84208
-1.25774
-0.904004
-0.209426
-0.509925
0.354927
0.229611
0.408664
0.372729
0.313984
0.253377
0.240808
0.303882
0.0357262
0.135898
0.105319
0.124133
0.0788208
-0.00870245
0.255334
0.245439
0.287496
0.306112
0.279629
0.308763
0.154447
0.154496
0.153461
0.155535
0.146002
0.143012
0.0984598
0.0760891
0.102121
0.0744821
0.0472554
0.0484604
0.0392121
0.0378411
0.0297749
0.0285265
0.0386976
0.0376681
0.250391
0.276697
0.114051
0.214072
-0.0207534
-0.100495
-0.136473
0.0474907
0.0999554
0.072005
0.443758
0.574874
0.523445
0.541165
0.423776
0.464513
0.366834
0.0622171
0.193514
0.252952
0.364517
-0.754676
-0.896919
-0.840176
0.598436
0.375659
-0.060825
-0.364733
-0.389936
0.14147
0.120254
0.101027
0.143246
0.197224
0.201065
-0.812018
-0.689604
-0.896101
-0.785628
-0.626321
-0.589652
-0.502983
-0.774961
-0.774854
)
;

boundaryField
{
    wall-4
    {
        type            zeroGradient;
    }
    velocity-inlet-5
    {
        type            zeroGradient;
    }
    velocity-inlet-6
    {
        type            zeroGradient;
    }
    pressure-outlet-7
    {
        type            fixedValue;
        value           uniform 0;
    }
    wall-8
    {
        type            zeroGradient;
    }
    frontAndBackPlanes
    {
        type            empty;
    }
}


// ************************************************************************* //
