/*--------------------------------*- C++ -*----------------------------------*\
  =========                 |
  \\      /  F ield         | OpenFOAM: The Open Source CFD Toolbox
   \\    /   O peration     | Website:  https://openfoam.org
    \\  /    A nd           | Version:  6
     \\/     M anipulation  |
\*---------------------------------------------------------------------------*/
FoamFile
{
    version     2.0;
    format      ascii;
    class       surfaceScalarField;
    location    "6";
    object      phi;
}
// * * * * * * * * * * * * * * * * * * * * * * * * * * * * * * * * * * * * * //

dimensions      [0 3 -1 0 0 0 0];

internalField   nonuniform List<scalar> 
1300
(
3.75095
5.62643
-6.41949
3.75095
-6.28605
5.62643
-5.10818
5.10818
-1.61546
1.61546
1.88276
1.86819
-5.3224
5.3224
-5.40745
5.40745
-2.97228
2.97228
-5.24676
5.24676
-5.07468
5.07468
4.77602
-4.77602
-5.15648
5.15648
-2.12055
2.12055
-5.95175
5.95175
3.2096
-3.2096
-5.42697
5.42697
-0.643465
0.643465
-0.539394
4.29035
3.21156
3.21156
-2.80939
2.80939
-4.86395
4.86395
6.21999
-6.21999
9.71459
-9.71459
-3.2951
-3.32816
1.34826
-8.06342
-4.93779
-4.93779
-8.44116
8.44116
-2.81473
2.8117
3.10037
-3.10037
-0.845011
0.845011
-4.84286
-0.265321
-4.84286
5.52686
-0.418678
5.52686
-1.78996
0.174504
-1.78996
4.09245
-4.09245
1.46288
0.152575
1.46288
3.0717
-3.0717
-1.87519
3.75796
1.87576
-1.86584
6.15619
-1.88511
3.7533
-4.87465
4.87465
-5.44053
0.118137
-5.44053
5.33208
-0.00968591
5.33208
-5.33984
5.33984
-5.38736
-0.0200873
-5.38736
5.40656
0.000888603
5.40656
3.19143
-3.19143
-3.03326
0.0609778
-3.03326
2.91885
0.0534311
2.91885
0.354612
5.27182
-5.98104
8.79274
-5.27182
0.0250538
5.20882
0.0379458
5.20882
-5.10939
0.0347144
-5.10939
5.01534
0.0593397
5.01534
4.9044
-0.128375
4.9044
-4.86023
0.0842052
-4.86023
-3.26643
-3.34575
-5.24915
0.092667
-5.24915
-2.11473
-0.00582074
-2.11473
2.10518
0.0153779
2.10518
-3.86598
3.86598
-6.1124
0.160655
-6.1124
3.15949
0.0501165
3.15949
1.86594
1.88501
5.6169
-5.6169
2.40729
-5.41715
-0.00982158
-5.41715
-5.47069
-4.24391
5.47069
-0.0437166
-0.993281
0.349817
-0.993281
3.18425
0.0273095
3.18425
2.90617
0.0126776
-2.90617
0.0967818
3.61465
-3.61465
2.11061
0.698779
2.11061
-5.57386
5.57386
4.95532
0.0600217
-4.95532
0.0913644
6.15604
0.0639499
6.15604
-6.20295
-0.0170414
-6.20295
3.33294
-6.66109
-3.29689
5.06252
0.0939629
-5.06252
0.124725
3.13515
-0.0347818
3.13515
-3.07267
3.07267
-3.09704
-0.00332729
-3.09704
-1.4172
0.572193
-1.4172
0.671108
0.173903
0.671108
-4.57915
-0.263703
-4.57915
-5.90187
-0.210538
5.90187
-0.375008
2.32249
-2.32249
-1.9229
0.132939
-1.9229
-4.32496
-0.254192
4.32496
-0.232511
-4.06782
-0.0246307
-4.06782
-3.09032
-0.0067265
3.09032
-0.0186183
3.12182
0.0624282
-3.12182
0.0501249
-1.869
3.75401
-1.88196
3.75772
-4.60077
-0.273876
-4.60077
5.1032
-0.228547
5.1032
5.71267
0.239081
-5.71267
0.272133
5.3609
-0.0288162
5.3609
-5.30341
-0.0364274
-5.30341
5.36759
-0.0277533
5.36759
5.35499
0.00590635
-5.35499
-0.0323714
5.40735
-0.000782306
5.40735
3.22168
-0.0302452
3.22168
-3.15142
-0.0400115
-3.15142
3.06129
-3.06129
3.05214
0.00915399
-3.05214
0.0188803
-11.1288
11.1117
-0.0348262
-11.0939
5.17399
5.17399
4.21744
0.68696
4.21744
-5.03107
0.170845
-5.03107
3.26961
-6.5665
3.30712
-6.57355
3.34847
-11.4119
3.30218
-6.64793
5.34613
-5.34613
5.32814
0.0179961
-5.32814
0.0789872
-2.12378
0.0090432
-2.12378
-3.63538
-0.230597
-3.63538
4.12174
-0.255764
4.12174
-3.05827
3.05827
-3.06996
0.0116855
3.06996
0.0895324
5.42861
-0.0212596
-5.42861
0.0114585
1.26043
0.202454
-1.26043
0.267148
3.77732
-0.162663
3.77732
-3.41084
-0.203816
-3.41084
-2.09826
-0.0255198
2.09826
0.0123541
-5.81479
0.240926
-5.81479
-11.1851
0.0911551
-11.1472
-6.1118
-6.1118
2.32937
11.1221
-3.15547
0.00404987
3.15547
-0.020322
3.06614
-0.00786866
-3.06614
-0.00653197
-3.06349
0.002201
3.06349
0.00917755
-2.04909
0.63189
-2.04909
-1.34193
1.34193
-0.873974
-0.467957
0.873974
-0.202866
2.7414
-0.41891
2.7414
2.01663
0.0885459
-2.01663
0.093729
-4.0092
-0.058617
-4.0092
5.20512
-0.101928
5.20512
-3.28875
-0.122086
3.28875
-0.0670716
-0.0326641
11.1444
-5.14133
0.0319347
5.14133
-11.2083
11.2403
-2.98847
0.939372
2.98847
1.22897
5.30034
0.273523
-5.30034
0.269269
5.34949
0.0181006
-5.34949
0.0033622
-3.41557
-0.219807
-3.41557
-4.32652
-0.274256
4.32652
-0.204774
-11.4784
-0.19715
11.6756
-11.4191
6.01194
0.144103
-6.01194
11.3844
-1.88848
-0.434017
1.88848
-0.546547
3.05496
-0.31356
3.05496
3.96288
-0.185561
-3.96288
-0.0463262
-5.22351
-0.0799077
5.22351
-0.0183832
-3.27616
-0.139412
3.27616
-0.221197
-4.26631
4.29362
1.88988
-3.348
-3.31309
-7.59191
1.85458
1.89943
4.26187
-7.06004
-4.35185
-6.93531
7.23282
-6.96356
-9.56452
9.43615
7.40335
-7.42799
-5.72295
5.81248
6.35671
-6.37533
1.84717
1.91079
10.6422
-10.5241
-10.3444
10.0705
10.2206
-10.2407
10.6535
-10.6899
-12.2255
12.2436
-5.69434
5.75532
-6.63522
6.59521
-6.74941
6.68234
-3.27412
-3.29943
9.03582
-8.94315
11.7232
-11.733
-11.1718
11.3324
3.31153
0.98209
3.37396
-1.8888
3.73597
-1.8645
3.75438
3.25383
-6.52795
3.31267
-6.62576
6.04911
5.67408
-6.0054
-1.58651
-5.88982
5.85504
-5.79995
5.80913
8.70229
-8.96761
-1.89387
3.80466
-1.86385
3.76327
-3.37725
-2.3457
3.32713
0.934741
5.57942
3.4564
-5.67339
-1.26193
-7.51753
7.33197
-7.81353
7.60972
-0.441726
5.8196
-5.37787
4.42223
-1.56211
7.3817
5.67072
5.84156
5.86122
-5.5877
1.10233
-6.4802
-6.38884
-2.65971
2.79265
2.67965
-2.52708
5.77611
1.62724
5.5436
-5.55915
-1.86884
-5.61776
3.85888
1.9536
3.87057
4.05822
2.29849
4.0515
3.05037
-3.03879
-0.0115725
-3.11818
6.16855
0.765866
-5.46388
-4.52914
6.98825
3.65399
6.97856
-7.31729
-3.20681
-7.04515
-6.11477
-4.22962
-6.38903
6.61352
3.457
6.38497
-7.77465
7.75626
6.76127
3.45936
6.76215
-6.84038
-3.40033
-6.87275
10.3209
-2.66856
-7.65235
-6.85537
-5.37015
6.88313
3.77039
7.45532
4.7883
7.45868
3.52092
6.79999
-7.29131
1.92116
-3.82861
-1.86573
-3.80973
3.71064
2.04468
3.76407
-4.17494
-2.46029
-4.17089
-4.20923
-2.54018
4.23947
2.35574
-4.22755
-3.58598
4.34964
2.3327
3.07608
-7.42793
3.57185
-6.87128
-6.27322
-2.66993
-6.19423
3.93322
2.72087
-6.65409
-2.59473
10.807
-5.13291
9.22048
-7.29869
-4.43433
-7.28723
-8.3912
-2.78058
-8.60174
-5.68467
5.46487
-5.7215
5.46573
10.4506
-5.4995
-4.95111
-3.84761
-2.52772
3.79748
-0.423524
-3.8182
3.80663
-0.0822343
3.67214
4.65423
4.23071
-3.86662
-1.93333
-3.87315
3.83775
1.97138
3.83995
7.64253
1.05976
7.22385
-6.12376
-2.84385
-6.38746
8.39565
-7.82346
2.97364
-2.99916
5.011
2.59872
-4.84834
-2.66919
5.89868
-2.83443
-3.06425
-12.2484
10.8502
1.3982
-4.86672
-0.444495
0.19897
-5.65081
-3.91371
5.5666
0.274956
11.1252
7.21147
-5.51386
5.75479
6.16173
6.22175
-0.167089
5.90691
-4.96754
4.86455
-2.606
-2.25855
5.05122
-5.30541
-1.33624
-5.03587
3.69963
0.238194
1.95119
-1.60137
-2.15663
-0.503087
-2.0629
1.63538
1.04427
1.83783
0.987772
1.80488
-2.86716
0.547692
2.31946
-1.87938
-1.97938
-3.36827
-1.17947
4.54774
5.37666
1.9553
-5.33034
-0.287426
2.82581
-2.81043
-0.613693
-2.75458
2.12734
-2.74104
-3.43315
-1.79419
5.22734
-3.36409
-0.509067
3.37195
0.498611
-3.78126
-2.10856
3.78459
0.266911
-3.02404
6.10964
-3.0856
-4.95737
2.5833
3.58525
4.53689
-4.82361
2.46435
2.35926
-1.23836
6.04789
0.930672
6.01908
-9.24849
6.04168
7.71805
3.6144
-7.95713
0.911973
-8.33652
9.48648
-8.2772
-1.20928
4.83659
4.64989
5.08963
5.36098
-3.86693
8.95656
-1.05113
-7.22607
9.38765
-5.77325
5.55088
-11.3241
-10.9119
3.68579
-6.91613
8.53426
-1.61813
-2.33467
-5.43998
9.2508
-0.843069
-8.40773
5.5419
-5.28126
-5.28975
10.571
-7.94982
8.69007
-2.57781
-6.11227
-6.63167
-4.05827
6.71158
1.04468
-9.80909
11.7303
-3.0091
5.86501
0.89714
5.86423
3.84848
-5.98016
2.13168
4.10133
-6.67914
2.53696
-8.51712
-4.73773
9.38388
-4.64615
-7.40766
-6.57837
-0.829286
2.03002
9.70024
-6.81832
5.29593
1.52239
3.33744
0.502511
-3.3466
-0.463137
0.333941
4.36604
-4.69998
4.09801
4.11069
3.23818
1.12786
3.83943
2.01561
-3.81911
-0.351782
-3.97098
1.4308
-1.61525
-3.29544
4.72624
-3.75683
0.461393
-2.62943
-3.49188
6.1213
-4.49516
3.06646
3.04318
5.03784
-4.73182
1.23994
-2.32462
-2.4072
2.51689
-4.13213
1.82287
2.90337
4.15557
0.56959
4.67885
4.70503
-7.39971
0.528429
8.16143
-6.8995
1.61315
5.84553
-6.90908
0.330706
-5.86353
1.16977
-6.30268
-5.48432
5.95853
-8.73912
-5.3656
7.56522
-0.341365
-7.19021
-1.41153
-3.95308
-1.7316
-4.09249
-1.72378
-3.99772
-5.59071
-1.23655
-4.35416
4.22832
-4.32506
-2.06396
4.52984
0.935896
-5.02969
4.59567
-4.89844
4.58488
0.123656
3.68298
4.35436
1.82664
-2.44462
4.27126
-6.13028
7.19003
-7.36279
1.23252
2.85172
-5.69558
-4.51107
4.3465
4.04915
4.52041
7.17896
-11.3829
4.20391
-8.21554
8.37604
-0.160507
-12.4022
4.18666
-5.22323
2.76419
0.209446
2.77324
0.721974
2.32319
-3.04516
-2.27718
-2.26483
-2.17805
-3.18456
5.36261
1.0048
-3.19966
2.19486
-3.21309
4.21789
-0.103085
-3.09657
5.15618
-2.83299
5.36563
-3.31618
2.04945
3.06569
5.27462
-2.20893
4.23114
-1.63243
1.62261
-3.83154
-1.56195
-2.95894
5.00363
-3.16236
3.62375
-0.303645
3.9274
-3.84541
1.01098
-0.607234
3.50345
3.60023
4.15113
-3.02327
2.74466
-4.37709
-1.08688
-3.8075
-0.904125
-4.58817
-3.22763
7.81581
4.79286
-9.38103
-6.28462
9.49075
-3.20613
7.56928
-5.96237
-1.60692
-4.09438
-3.72909
3.46249
2.44442
10.0137
-0.195622
-5.76675
-5.16316
-3.93419
2.29839
2.56616
-2.07869
3.47689
1.87972
0.0714702
0.603944
1.23389
1.88105
-1.27711
0.100334
1.78072
-1.50104
2.1063
0.719513
-2.19484
0.131946
-1.29381
3.42115
1.02566
-2.06993
0.792823
0.74439
-3.35039
4.42997
-2.20431
-2.22566
5.17436
1.10351
-3.30782
3.93236
-3.69417
1.94664
-3.1261
-1.36118
-5.05535
-3.42811
-2.30787
4.50272
-3.05474
5.01005
1.06957
-4.72262
5.79219
-3.28678
1.49259
-2.93754
3.65706
-0.93111
-2.00643
2.63771
2.58963
-2.7958
0.0412242
-0.158089
2.17901
-2.3371
-0.562027
-2.44141
-4.53321
4.80012
-2.03654
4.50089
2.23472
-1.92832
6.42921
1.79268
-3.721
-3.1647
-3.67376
-1.36174
3.17515
-0.934466
-5.93829
-7.04673
5.93238
0.086694
-8.98345
10.1716
-1.1881
-5.32947
-0.712214
5.54881
-7.40931
0.730168
-4.87235
5.2992
6.22987
6.31657
-8.33303
-0.0747024
-4.87603
1.19935
-6.07538
5.84924
-2.88873
6.57452
-7.00373
4.93977
-6.06783
5.36524
-0.710143
5.55306
-3.42138
2.09929
-6.15756
-5.11288
6.97339
-3.51403
7.87053
-4.04787
11.9184
-7.05697
6.92862
4.98978
-1.38089
-5.90634
-6.86525
5.48436
0.0633697
5.9276
4.78495
-2.76934
4.43317
2.15925
-4.48386
-1.97288
-6.30901
1.82515
-3.26583
-1.84077
3.66592
3.19707
3.69958
1.25871
-3.23644
6.49876
-7.32805
-1.85261
-3.6317
6.75468
-1.27032
3.98234
-7.61404
-2.32034
5.51979
-1.07535
-4.44444
-0.0202911
-5.34531
3.0077
-8.353
5.73142
-7.14295
1.74599
-6.96923
-3.2837
-3.83024
-1.64999
-3.24845
-5.11497
3.46499
-0.928315
3.66736
-6.08214
5.00679
-2.2939
5.75889
-3.53522
-0.557271
3.75641
0.828464
6.58735
-1.04456
-3.46651
-2.01029
3.58968
-1.57938
0.288097
-4.2722
-0.682521
2.21038
2.96398
-5.91
0.214427
-3.25208
-2.74945
6.7986
6.74131
11.5342
0.151287
7.84695
-1.04835
7.99823
3.47206
3.26919
-2.55658
6.7605
5.25922
6.49174
-0.837329
2.88678
1.93591
1.93009
0.880348
2.22215
1.37808
3.23313
0.187971
-2.07686
5.06543
-8.99961
-0.701318
-8.31265
1.12349
6.12477
-5.00128
3.15982
-0.593662
1.58044
-0.615536
-2.16376
2.77929
-2.87408
-2.09229
-0.311568
-1.57703
2.36985
1.84412
-2.05829
-0.815796
0.288633
-3.71674
2.83747
-2.79624
-0.206615
5.58558
-2.58717
0.250078
-1.09458
-2.19133
-2.69442
2.56247
6.13393
0.295282
3.04833
5.0954
2.98684
0.2175
4.43746
-6.05559
-4.07965
-6.13029
-0.281052
5.26775
2.02125
7.67899
7.01103
5.74071
-1.87333
-9.20138
7.14455
-0.384054
6.98404
-2.5396
-5.8134
6.22207
0.967966
-5.8807
-1.26225
-7.07565
-7.4597
-0.466765
5.47356
-6.12059
5.56332
3.83172
0.522441
-2.93276
-0.897482
3.40072
-0.131526
7.86671
-1.31672
-7.87271
9.18943
-4.80805
4.10673
0.205955
3.27093
2.98525
2.39158
-5.48112
-10.4824
-1.90822
-1.44218
-4.13388
0.413855
-2.25797
6.601
-2.49427
4.99408
6.69516
8.2756
-3.86002
-5.52102
7.06615
-2.07206
6.20354
)
;

boundaryField
{
    wall-4
    {
        type            calculated;
        value           uniform 0;
    }
    velocity-inlet-5
    {
        type            calculated;
        value           uniform -3.75095;
    }
    velocity-inlet-6
    {
        type            calculated;
        value           uniform -5.62643;
    }
    pressure-outlet-7
    {
        type            calculated;
        value           nonuniform List<scalar> 8(6.41949 6.28605 6.62326 6.71516 6.61219 6.62983 6.57672 6.65065);
    }
    wall-8
    {
        type            calculated;
        value           uniform 0;
    }
    frontAndBackPlanes
    {
        type            empty;
        value           nonuniform 0();
    }
}


// ************************************************************************* //
