/*--------------------------------*- C++ -*----------------------------------*\
  =========                 |
  \\      /  F ield         | OpenFOAM: The Open Source CFD Toolbox
   \\    /   O peration     | Website:  https://openfoam.org
    \\  /    A nd           | Version:  6
     \\/     M anipulation  |
\*---------------------------------------------------------------------------*/
FoamFile
{
    version     2.0;
    format      ascii;
    class       volVectorField;
    location    "6";
    object      U;
}
// * * * * * * * * * * * * * * * * * * * * * * * * * * * * * * * * * * * * * //

dimensions      [0 1 -1 0 0 0 0];

internalField   nonuniform List<vector> 
918
(
(0.986575 -0.0035125 0)
(0.00515754 2.96637 0)
(-0.00338896 1.70853 0)
(0.976637 0.00826335 0)
(-0.00737592 1.67395 1.77213e-21)
(-0.00694888 2.94852 -2.28027e-18)
(1.01 1.29911 5.96056e-19)
(0.537072 0.288483 -9.04263e-21)
(0.999847 -0.00201362 0)
(0.0348377 1.59132 0)
(0.00221885 1.63371 0)
(0.893109 0.00989043 0)
(0.0106402 2.93066 0)
(-0.00066286 2.79898 0)
(-0.00302705 3.2338 1.04287e-18)
(0.0136725 1.6254 -2.54387e-20)
(0.677618 0.135184 5.39248e-19)
(0.259126 1.88049 5.7899e-19)
(0.987829 0.0316332 0)
(-0.00260211 1.64124 0)
(0.225722 0.321462 -5.80293e-19)
(0.995175 -0.00136625 0)
(0.996843 -0.00597055 0)
(0.959729 0.00785638 0)
(0.847693 -0.016977 0)
(-0.00248334 2.64393 0)
(-0.0123616 2.91081 8.20023e-19)
(-0.0018316 1.72098 0)
(-0.00125759 1.76685 0)
(0.0028412 1.73407 0)
(0.000594254 1.79138 0)
(-0.00060596 1.69251 -1.405e-21)
(-0.0111168 1.6289 0)
(-0.0220003 2.98753 -8.13419e-23)
(-0.0166941 3.00554 1.77593e-18)
(0.00224713 3.00078 0)
(0.936101 0.0104389 0)
(0.125025 0.306191 -3.0308e-19)
(0.92096 1.37144 -7.21238e-19)
(1.06699 1.11231 7.8975e-19)
(0.795571 1.5754 -1.34226e-19)
(0.922965 1.51613 7.93698e-19)
(0.589049 0.346602 8.82312e-21)
(0.584189 0.259787 0)
(1.21138 0.532338 0)
(0.55422 0.349368 4.21128e-20)
(0.520162 0.286063 -4.36918e-20)
(0.928833 0.00310914 0)
(0.998825 -0.00141541 0)
(0.999987 -2.67939e-05 0)
(0.991916 -0.00823081 0)
(1.00072 -0.00329874 0)
(1.00078 -0.00105483 0)
(0.0382227 1.58267 -5.07796e-19)
(0.030739 1.70485 0)
(0.110799 1.62855 0)
(-0.0120575 1.68545 0)
(-0.00602865 1.57938 0)
(-0.00249957 1.63609 0)
(-0.00836234 1.69218 0)
(-0.0152413 1.61952 0)
(0.00112324 1.70452 0)
(0.0103446 1.62448 0)
(0.962694 0.0166829 0)
(0.945448 0.0102868 0)
(0.911919 0.00178317 0)
(0.931645 0.0273838 0)
(0.873183 0.026947 0)
(0.0143948 2.99987 8.42714e-19)
(0.0117872 3.00535 0)
(0.00697089 3.00412 0)
(0.0120664 2.99628 9.53332e-24)
(0.00857973 2.95829 -1.25249e-18)
(0.0121551 2.98247 0)
(0.00938391 2.90408 0)
(0.0231179 2.93167 1.85651e-24)
(0.00317872 2.82754 0)
(0.0301858 2.9176 0)
(-0.0111103 2.74844 0)
(0.327879 3.64551 0)
(-0.117941 3.73901 0)
(0.163533 3.31725 -9.70729e-19)
(0.0118019 3.03246 0)
(-0.00717096 1.76119 0)
(0.00417233 1.70273 2.50964e-20)
(0.00209997 1.64778 -1.84045e-20)
(0.713701 0.17255 -1.85561e-19)
(0.686086 0.0988286 -1.80102e-19)
(0.719401 0.197344 -5.591e-19)
(0.668645 0.162056 -3.7672e-19)
(0.232554 1.33899 0)
(0.34285 1.9486 -6.5134e-19)
(0.515001 1.90334 1.06301e-18)
(0.994656 0.0247213 0)
(0.94507 0.0442055 0)
(1.00051 0.000309619 0)
(0.998398 0.0115095 0)
(1.01221 0.0264479 -8.64095e-19)
(0.983434 0.0098138 6.64247e-19)
(-0.00563748 1.69674 0)
(-0.00130902 1.63778 0)
(0.00235069 1.73899 0)
(-0.00941986 1.71087 0)
(0.00744869 1.649 0)
(0.323521 0.346111 1.7683e-19)
(0.367406 0.315234 0)
(0.992545 0.00423144 0)
(0.978568 0.00665785 0)
(0.903297 0.0113959 0)
(0.900111 0.00339666 0)
(0.880111 -0.00861777 0)
(1.08443 0.00723698 0)
(0.862147 0.0485614 0)
(0.76204 0.0547234 6.96203e-19)
(-0.0454124 2.86743 5.65776e-19)
(0.0376803 2.90959 0)
(0.0425195 2.88759 0)
(-0.0167466 2.70433 0)
(-0.00865065 2.98591 7.72909e-19)
(-0.0158299 2.89472 0)
(-0.0114701 2.98985 -2.40429e-18)
(-0.0118607 2.92714 8.22334e-19)
(0.00242314 1.77839 0)
(0.000970435 1.76745 0)
(0.00954207 1.70258 -4.45828e-22)
(-0.00273716 1.69687 0)
(0.00599956 1.62737 0)
(0.976905 0.0111448 0)
(0.944067 0.0103023 0)
(0.927372 -0.0140825 0)
(0.971162 0.00642482 0)
(0.927482 -0.0147411 0)
(0.231757 0.711549 3.57522e-19)
(0.237205 0.830268 0)
(0.370015 0.489967 -4.23247e-20)
(0.19116 0.0536989 0)
(1.00709 1.1772 -2.26979e-19)
(1.12751 0.910933 4.91853e-19)
(0.531701 1.9075 0)
(0.67743 1.76544 0)
(0.759023 1.7563 0)
(0.50607 0.816841 -3.3499e-19)
(0.647575 0.29923 0)
(0.627818 0.221137 1.07742e-19)
(1.08075 0.987583 0)
(1.13078 0.799115 0)
(1.17544 0.731365 -4.53717e-19)
(1.20432 0.60547 0)
(1.2624 0.406063 5.73331e-20)
(0.977127 -0.00716644 0)
(0.962357 0.00523708 0)
(0.933558 0.00517393 0)
(0.986962 0.00610201 0)
(0.965464 0.00106103 0)
(0.944137 0.00298745 0)
(1.00049 0.00341338 0)
(1.00017 0.00110384 0)
(1.00009 0.00175988 0)
(0.0278324 1.60607 2.71779e-19)
(0.0526368 1.51986 0)
(0.0174524 1.65818 4.66592e-19)
(0.0165384 1.62689 -4.09109e-19)
(0.189702 1.88 -4.80042e-19)
(0.077538 1.7386 0)
(0.142533 1.73883 0)
(-0.0118884 1.69656 0)
(0.00783691 1.59912 0)
(-0.00207194 1.68934 -1.25968e-21)
(0.00742334 1.62559 0)
(0.00409893 1.69599 -6.77785e-20)
(-0.00133967 1.63795 1.28938e-19)
(0.00133599 1.7027 0)
(-0.0217477 1.69054 0)
(-0.00534191 1.60995 0)
(0.0121493 1.69707 0)
(0.0102512 1.62794 0)
(1.01552 0.000688966 0)
(0.965008 -0.00806726 0)
(0.990169 0.016935 0)
(0.950648 0.0170676 0)
(0.916886 0.00753291 0)
(0.960731 0.00841763 0)
(0.962632 -0.000708553 0)
(0.920568 -0.0115852 0)
(0.0106741 3.06686 -7.70037e-21)
(0.0165703 3.057 0)
(0.0117771 2.96925 0)
(0.00773981 2.87731 0)
(0.865156 4.04515 0)
(1.1371 3.39695 1.01256e-18)
(0.0805007 3.10296 0)
(-0.0341137 2.92275 0)
(-0.00181813 1.75013 0)
(-0.00774155 1.75258 0)
(-0.00544109 1.75285 0)
(-0.00823858 1.78653 2.15015e-21)
(-0.01351 1.77143 0)
(-0.00247945 1.77343 0)
(0.00771602 1.63848 5.07282e-21)
(-0.000373505 1.70547 3.98764e-20)
(-0.0139933 1.71051 1.90465e-20)
(-0.0093102 1.64352 0)
(0.752483 0.124209 2.71935e-19)
(0.704453 0.0402688 -2.62705e-19)
(0.205032 1.41419 0)
(0.306532 1.26974 -2.25853e-19)
(0.141873 1.44175 -6.70245e-19)
(0.16466 1.38441 6.68926e-19)
(0.907313 0.00531081 0)
(0.968957 0.00493351 0)
(0.976143 0.0307476 0)
(0.926982 0.0188409 0)
(0.0039566 1.70121 0)
(0.00394624 1.70358 0)
(0.00306998 1.64036 0)
(0.50326 0.374127 3.94269e-19)
(0.432943 0.37779 -5.11566e-19)
(0.466631 0.289967 0)
(1.19439 0.0805399 -6.06277e-21)
(1.17876 0.0376443 0)
(1.10801 0.045914 0)
(1.02369 0.0110544 0)
(0.766094 0.0826941 0)
(0.774352 0.0860226 -1.11752e-18)
(0.730849 0.0303282 4.2469e-19)
(0.00845083 2.98114 6.29446e-19)
(-0.0332353 2.8667 4.89171e-20)
(0.00409552 3.04986 -1.63983e-20)
(0.0175189 3.04338 6.00708e-19)
(-0.0121762 2.99802 2.72006e-20)
(-0.0128 2.95169 -1.09761e-22)
(-0.0155776 3.01346 -5.0964e-19)
(0.0128445 3.02758 3.5924e-19)
(0.00710254 3.03392 -5.70242e-19)
(0.995106 0.0116325 0)
(0.992704 0.00554567 0)
(0.950331 0.00796907 0)
(0.964415 0.00122006 0)
(0.968752 -0.0121624 0)
(0.923122 -0.0187048 0)
(0.966107 0.0101587 0)
(0.964401 -0.00603569 0)
(0.92021 -0.0039896 0)
(0.405447 1.1324 4.69328e-19)
(0.477668 1.32464 0)
(0.365341 0.321155 5.33578e-20)
(0.533102 0.639403 2.03284e-19)
(0.490575 0.522287 4.28419e-20)
(0.228964 0.0820733 -1.53795e-19)
(0.48394 1.10141 1.61878e-18)
(0.515538 1.01649 3.44323e-19)
(0.690385 0.252878 4.10189e-19)
(0.656507 0.274904 9.8741e-20)
(0.63289 0.210282 2.08153e-19)
(1.25292 0.443751 3.14096e-19)
(1.27947 0.221278 3.36912e-19)
(-0.00743217 1.6844 1.92258e-19)
(-0.0131105 1.63464 0)
(1.05187 0.0256377 0)
(1.01588 0.0130153 0)
(0.996698 0.00523792 0)
(0.0124849 3.07158 0)
(0.0168232 2.94488 1.05887e-18)
(0.0136928 2.95629 0)
(0.00545264 2.85172 -1.05055e-18)
(0.00886932 3.08975 2.5726e-19)
(0.0109788 3.08292 0)
(0.471067 1.66413 -2.22235e-19)
(1.15817 2.60712 7.16212e-19)
(0.492707 1.89432 -1.56941e-18)
(0.0183178 2.98596 -5.20117e-19)
(0.0378064 3.01823 0)
(-0.04597 2.88565 0)
(-0.00713597 1.68906 -1.14275e-20)
(0.00240774 1.69708 -9.07123e-20)
(-0.00433307 1.63875 -4.39444e-21)
(0.264514 1.34732 7.19955e-19)
(0.358012 1.22458 -5.03109e-19)
(0.0398432 1.54715 4.35574e-19)
(0.0854362 1.50792 -5.46521e-19)
(0.0883605 1.44672 6.69856e-20)
(0.00227515 3.11883 -1.56998e-18)
(0.0161768 3.11757 1.68528e-18)
(-0.00556308 2.97956 7.08559e-19)
(-0.000365991 2.97492 -6.62012e-19)
(-0.0177647 2.87924 -7.21686e-19)
(0.0121206 3.09793 -1.90555e-18)
(0.00392471 3.10494 1.86191e-18)
(0.520521 0.98376 0)
(0.553323 0.806108 -1.12783e-18)
(0.487751 0.605736 5.18504e-19)
(0.439617 1.2127 9.80805e-19)
(0.464665 1.12282 -1.51885e-18)
(1.26683 0.175987 -5.84812e-20)
(1.28336 0.294634 0)
(1.27136 0.123736 1.31344e-19)
(0.00420884 1.68616 -1.65288e-21)
(-0.0182112 1.68583 0)
(-0.00422962 1.61779 0)
(0.309948 1.32568 -2.60949e-19)
(0.369748 1.29409 -5.96568e-19)
(0.416349 1.20411 1.09943e-18)
(1.00767 -0.0319681 0)
(0.999282 -0.0145577 1.73272e-19)
(0.00380583 1.77553 0)
(-0.00523897 1.78359 0)
(0.997284 -0.00216877 -3.09361e-21)
(1.01029 -0.00309559 3.25185e-19)
(-0.00975188 1.78673 -2.6983e-21)
(-0.00839534 1.78874 0)
(0.0677522 3.19753 3.70366e-19)
(0.443754 3.62659 0)
(1.12721 0.666017 5.40119e-20)
(1.0079 0.00167973 -4.9552e-21)
(1.00261 0.0063239 0)
(1.00273 -0.00971239 -2.29592e-21)
(0.0427505 1.84032 0)
(0.0946244 1.71728 0)
(0.00443826 1.79372 0)
(0.0100115 1.7752 8.97719e-20)
(0.00667014 1.76578 4.53688e-20)
(0.998978 0.021958 1.32359e-21)
(1.0396 -0.00545146 0)
(1.06336 0.0304971 0)
(-0.00329749 1.75178 0)
(0.00030228 1.78331 0)
(-0.00536832 1.79206 0)
(0.199481 1.92559 -2.16595e-19)
(1.00458 -0.033821 0)
(0.993727 -0.0361165 0)
(1.0079 -0.00231951 2.14956e-19)
(0.997265 -0.00576576 -2.54769e-19)
(1.00067 -0.00106687 0)
(0.00484465 1.73782 0)
(0.00438105 1.7658 0)
(0.004811 1.74959 0)
(-0.00919952 1.79407 0)
(-0.00556197 1.78417 0)
(-0.0095746 1.79125 0)
(1.02158 -0.00135015 0)
(1.01449 0.00935479 -1.11611e-21)
(0.648443 1.35661 3.66729e-19)
(1.00544 -0.00318119 -2.14308e-19)
(0.994667 0.004291 2.56432e-19)
(1.00099 0.0066454 0)
(1.00513 0.00743965 2.11099e-19)
(0.993858 -0.00594201 -2.57766e-19)
(0.986311 -0.00654388 0)
(-0.00323552 1.79192 0)
(-0.00742422 1.79132 1.36313e-20)
(-0.00815598 1.79195 -9.92501e-21)
(1.14071 0.254115 -4.83504e-20)
(1.09944 0.0745445 0)
(0.0472948 3.08796 -7.68611e-19)
(0.0527999 2.86069 -5.79266e-20)
(0.138128 3.18106 1.13349e-18)
(0.140012 3.19365 -1.52517e-19)
(0.1647 3.2598 0)
(0.0206401 3.1465 2.03648e-19)
(0.074332 3.15194 7.62113e-19)
(0.073668 3.16152 -4.39417e-19)
(0.0266838 3.13113 0)
(0.702276 0.351774 0)
(0.638754 0.390425 0)
(1.01702 0.65652 -1.87202e-19)
(1.00037 0.843546 2.91148e-19)
(1.13959 0.569753 0)
(1.14812 0.569313 0)
(1.0186 -0.00242744 -4.03918e-19)
(1.02381 -0.00132557 5.01056e-19)
(1.01571 0.008554 0)
(1.01974 0.00912667 0)
(1.01998 -0.00206481 0)
(1.01892 0.0134403 0)
(1.02829 -0.0138029 0)
(1.02222 0.0202105 0)
(1.0192 0.0205015 0)
(1.02177 0.0107072 0)
(0.0226568 1.82912 0)
(0.00340767 1.83869 0)
(0.0870619 1.87614 0)
(0.0531267 1.88942 0)
(0.0874599 1.70363 0)
(0.0619693 1.68334 -2.90918e-19)
(0.085743 1.74 0)
(0.0577068 1.73316 1.51652e-19)
(0.00593428 1.74753 -1.59994e-19)
(0.00539081 1.793 0)
(0.00250058 1.79119 0)
(0.0046367 1.79987 0)
(0.00378079 1.81988 0)
(-0.000312292 1.76555 -5.30645e-20)
(0.000663524 1.77355 6.13322e-20)
(0.00243042 1.78064 7.57017e-20)
(0.00268866 1.77784 0)
(0.00614849 1.77373 -9.63399e-20)
(0.00841603 1.77277 -6.29172e-20)
(-0.00211362 1.7636 4.34995e-20)
(-0.00434544 1.76709 -8.18371e-20)
(-0.0025206 1.77385 -9.40712e-20)
(1.00335 0.020694 3.83265e-19)
(1.00756 0.00892912 -4.65727e-19)
(1.00283 0.00930456 -4.04253e-19)
(0.984308 0.0074821 5.12595e-19)
(1.0409 0.00531143 0)
(1.04425 -0.0142988 0)
(1.05669 0.0278797 0)
(1.04739 0.00312864 0)
(1.06729 0.0158191 0)
(1.07272 0.0677818 0)
(1.07486 0.0320717 0)
(1.08577 0.0390118 0)
(-0.0108494 1.78752 -1.57615e-21)
(-0.00426715 1.7579 0)
(-0.0140038 1.77361 0)
(0.00474244 1.78471 1.21062e-20)
(0.00686259 1.7841 -7.41589e-22)
(0.0175151 1.73141 2.56854e-20)
(0.00617973 1.73801 -2.63117e-20)
(-0.00348373 1.77567 0)
(0.000568233 1.77288 0)
(-0.000216676 1.76852 0)
(-0.000436111 1.79053 0)
(-0.000507386 1.78368 0)
(0.340745 1.91765 3.70973e-19)
(0.318645 1.92623 1.78261e-19)
(0.30761 1.57828 -1.77756e-19)
(0.14177 1.60395 4.51009e-19)
(0.24156 1.67838 1.14458e-19)
(0.998855 0.00211199 0)
(0.986655 -0.0308503 0)
(0.983139 -0.0252385 0)
(1.03787 -0.0113603 0)
(1.01011 -0.0200912 0)
(1.00031 -0.0202932 0)
(0.987873 -0.0121597 0)
(1.00076 0.0117161 0)
(1.01301 0.00991217 3.73418e-19)
(1.02046 0.0111427 -4.77338e-19)
(1.01353 0.00553168 -3.64134e-19)
(1.01585 -0.00505105 4.64404e-19)
(0.634298 1.49592 0)
(0.523713 1.63056 3.21197e-19)
(0.771456 1.19705 1.93495e-19)
(0.807783 1.1887 -2.55641e-19)
(0.830569 2.47834 -1.20577e-18)
(0.840225 0.109108 2.69615e-19)
(1.10561 0.07786 0)
(1.11286 0.173026 3.80146e-20)
(1.16276 0.136127 4.4429e-21)
(0.970594 0.0982968 0)
(0.134792 2.9718 2.74486e-19)
(0.112204 2.88415 -9.61857e-19)
(0.00906345 2.37681 6.60294e-19)
(0.172469 0.165494 -2.98438e-19)
(0.3786 3.49668 -4.11408e-19)
(0.214474 3.31943 0)
(0.271531 3.44004 5.35796e-19)
(0.261214 3.03431 -1.09261e-18)
(0.348072 3.21327 0)
(0.010507 3.12054 4.00101e-20)
(0.0186696 3.12869 -4.79521e-19)
(0.0179652 3.12494 7.05807e-19)
(0.0395514 3.13771 0)
(0.0372147 3.14588 0)
(0.998151 2.57096 0)
(0.588423 0.71898 -1.2778e-19)
(0.928957 0.990745 -1.55502e-19)
(0.902772 1.03897 0)
(0.719925 0.973779 6.68396e-20)
(0.984297 0.874539 1.95551e-20)
(0.432955 0.492727 -6.88986e-19)
(0.718047 0.332879 -2.2612e-20)
(0.738575 0.307925 2.01166e-19)
(0.628434 0.43158 1.83975e-20)
(0.58105 0.434451 -7.72298e-19)
(0.698136 0.364984 0)
(0.701734 0.424283 3.44629e-19)
(0.694289 0.40968 0)
(0.656932 0.399726 0)
(0.668856 0.381564 0)
(0.775787 0.55532 8.98065e-20)
(1.17945 0.267139 6.2724e-20)
(1.13557 0.422009 0)
(1.1964 0.390638 0)
(0.797004 0.223836 3.2506e-19)
(0.777311 0.496816 -1.7201e-19)
(0.728663 0.445156 2.7098e-19)
(0.88156 0.413721 -2.55652e-19)
(1.02388 0.000435737 2.56135e-19)
(1.02508 -0.00489054 -2.60317e-19)
(1.02509 -0.00169468 0)
(1.02083 0.00153252 0)
(1.02085 0.00579883 -2.45277e-19)
(1.02312 -0.00797737 2.42207e-19)
(1.01067 -0.00432361 0)
(1.00301 0.00307643 0)
(1.02145 0.00741113 0)
(1.02344 -0.00737712 0)
(1.02288 0.0111991 0)
(1.02032 0.0107957 0)
(-0.00206864 1.84121 0)
(-0.00219276 1.8363 0)
(0.147679 1.86344 4.18163e-20)
(0.200959 1.92047 1.09155e-19)
(0.099619 1.93993 2.41865e-19)
(0.100877 1.94323 -3.91993e-19)
(0.142977 1.87721 0)
(0.143009 1.7527 -1.03544e-19)
(0.14703 1.75868 0)
(0.241428 1.67612 -1.65968e-19)
(0.17956 1.63607 5.39645e-19)
(0.162713 1.78383 9.42168e-20)
(0.195161 1.86185 4.49697e-20)
(0.167111 1.85539 -3.60467e-20)
(0.249892 1.80085 -8.30077e-20)
(0.19649 1.7617 0)
(0.199607 1.74796 8.47826e-20)
(0.0191947 1.77039 -4.52538e-20)
(0.00102171 1.74092 0)
(0.0300988 1.73172 1.80199e-19)
(0.0117343 1.7345 0)
(0.044982 1.73521 -1.68456e-19)
(0.0147985 1.73006 0)
(0.001028 1.76174 -3.50908e-20)
(0.00333936 1.76139 0)
(0.00511434 1.76476 0)
(0.0058393 1.76075 4.00693e-20)
(0.0139076 1.77484 -4.9344e-22)
(0.0173488 1.76852 1.95692e-19)
(0.0146401 1.77684 1.34503e-21)
(-0.00985126 1.76109 3.10008e-20)
(-0.00967177 1.76054 2.07444e-20)
(0.00345675 1.79034 0)
(-0.00486708 1.78408 0)
(0.0128093 1.77257 1.03652e-19)
(0.0102765 1.75996 7.49857e-20)
(0.00911737 1.75987 -1.05534e-19)
(0.0286285 1.77834 0)
(0.00813812 1.75519 -5.13375e-20)
(0.00595044 1.75672 2.40554e-20)
(0.00183444 1.75843 -7.70719e-21)
(-0.0116542 1.76345 -3.87492e-20)
(0.00649948 1.76766 -1.21604e-20)
(0.00363615 1.77303 5.95781e-20)
(1.01524 -0.00620853 -2.44894e-19)
(1.01324 0.00704651 2.47125e-19)
(1.01512 -0.00161931 0)
(0.977346 0.0676227 3.86419e-19)
(0.980558 0.0183351 -4.30157e-19)
(0.948401 0.0123827 5.05237e-19)
(0.975095 0.0742133 -4.98651e-20)
(1.03428 0.00763313 0)
(1.04023 0.000444088 2.09628e-19)
(1.04316 0.00214505 -2.08591e-19)
(1.01022 0.0386609 -1.29288e-20)
(1.01895 0.0143393 1.15444e-19)
(0.981831 0.0300581 0)
(0.968506 0.023074 -3.99214e-20)
(1.01249 0.0206463 0)
(1.00206 0.0278787 0)
(1.01487 -0.000478557 0)
(1.01725 -0.00249058 0)
(1.00098 0.0130463 8.70183e-20)
(1.00106 0.0209023 -1.79998e-19)
(0.979502 0.0189771 -9.01687e-20)
(0.961842 0.0148277 -1.02463e-19)
(0.985907 0.0534172 1.64591e-19)
(1.05527 0.0454723 0)
(1.0483 0.091908 0)
(0.0216273 1.75751 -2.22921e-20)
(0.0172997 1.74897 -2.5944e-21)
(0.0229702 1.74066 0)
(0.00947296 1.77781 2.23624e-20)
(-0.00578389 1.78398 4.16165e-21)
(0.000743853 1.78286 -3.96916e-21)
(0.00982618 1.77394 5.64671e-20)
(0.00117509 1.76113 -3.37238e-21)
(0.00632928 1.7664 1.49544e-20)
(0.0117062 1.76892 -2.76569e-20)
(0.00933407 1.77294 3.24267e-20)
(0.00504571 1.75479 2.267e-22)
(0.0242082 1.74917 2.99597e-20)
(0.346149 1.8066 -1.66138e-19)
(0.265829 1.79526 6.79362e-20)
(0.532392 1.72581 -3.07699e-19)
(0.435675 1.87579 -1.78336e-19)
(0.434763 1.81412 0)
(0.33793 1.58243 1.82584e-19)
(0.33719 1.55429 2.6631e-19)
(0.196298 1.60654 3.73145e-20)
(0.185684 1.60446 -6.07747e-19)
(0.261334 1.6077 4.83589e-19)
(0.287657 1.6094 0)
(0.217236 1.6103 -3.70713e-19)
(0.0666282 1.66069 7.5525e-19)
(0.121841 1.63545 -4.70154e-20)
(0.0359227 1.63378 -1.04827e-18)
(0.767134 1.48452 7.81348e-19)
(0.593311 1.51025 0)
(1.03582 -0.0117065 7.66208e-21)
(1.02162 0.0268651 -6.81417e-21)
(1.02222 0.0331031 -1.21713e-19)
(1.02374 0.0150267 1.22119e-19)
(1.02617 -0.00270907 0)
(0.334013 1.41064 0)
(0.279218 1.27108 0)
(0.556351 1.03988 0)
(0.321177 1.05518 0)
(0.847246 2.43392 1.76053e-19)
(0.863379 2.10941 0)
(0.463624 2.36549 4.21124e-21)
(0.514808 1.80433 0)
(0.603848 1.94375 -5.17088e-19)
(0.574736 2.07226 3.19352e-19)
(0.861153 0.131903 0)
(0.838387 0.167777 7.84298e-20)
(0.926693 0.0932445 3.8433e-19)
(0.856353 0.094123 -1.53785e-19)
(0.837948 0.0748104 -4.81976e-19)
(0.992383 0.192174 -2.05992e-19)
(0.919206 0.273949 -1.05742e-20)
(0.823259 0.269975 3.65833e-19)
(0.934503 0.216438 2.49592e-19)
(0.940915 0.148324 -4.78147e-19)
(0.910319 0.148283 6.18052e-20)
(0.905734 0.22628 -1.17023e-19)
(0.911297 0.180785 0)
(0.955587 0.150033 2.24559e-19)
(0.960928 0.144335 0)
(0.959725 0.193562 0)
(1.07206 0.102774 7.23074e-20)
(0.984505 0.12792 -1.18717e-20)
(0.990874 0.18635 -4.01267e-20)
(1.05149 0.195537 0)
(1.01882 0.0305466 1.89139e-19)
(1.00944 0.0353114 2.2847e-19)
(1.01689 0.0423732 -1.84354e-19)
(1.02991 0.0525771 -1.55233e-19)
(0.998315 0.068571 -2.71774e-19)
(0.941682 0.0689492 0)
(0.943151 0.0642836 0)
(0.935748 0.0603815 -1.83022e-19)
(0.908163 0.069803 7.92812e-20)
(1.01769 0.0992962 2.14528e-19)
(0.989213 0.109401 -2.26312e-19)
(0.996791 0.115782 2.01866e-19)
(0.997733 0.125943 0)
(1.00553 0.0947672 0)
(1.0041 0.0935511 -8.89337e-20)
(1.02405 0.0959855 -1.69036e-19)
(0.0253837 1.83107 -1.54592e-19)
(0.19254 2.67431 1.24607e-19)
(0.751692 3.05641 3.94911e-19)
(0.978144 3.35714 -1.51978e-19)
(0.948861 2.75415 1.3431e-18)
(1.02862 2.76348 -4.52993e-19)
(0.934523 2.13116 -3.33372e-20)
(0.920867 3.21985 5.22781e-19)
(0.908904 3.16331 -6.90029e-19)
(1.01268 3.47093 -3.16849e-19)
(1.25313 3.12329 4.29756e-19)
(1.29074 2.97491 0)
(0.608541 0.716834 2.48647e-20)
(0.299335 1.20945 4.40144e-19)
(0.410401 0.638449 4.24275e-19)
(0.323143 0.403953 5.35318e-19)
(0.568237 0.447795 4.29753e-19)
(0.559985 0.482834 -6.75247e-19)
(0.535271 0.54415 5.58536e-19)
(0.490575 0.498237 -2.49995e-19)
(0.52055 0.472191 5.4634e-19)
(0.795264 0.251539 -1.83029e-19)
(0.761786 0.296352 0)
(0.774099 0.283438 1.07031e-20)
(0.705089 0.489116 1.73029e-19)
(0.665088 0.468273 -6.44291e-19)
(0.588388 0.51109 3.55431e-20)
(0.648747 0.473494 0)
(0.680169 0.600605 6.3318e-20)
(0.714218 0.765825 2.36213e-21)
(0.678903 0.767426 -1.39531e-20)
(0.773281 0.693615 -1.42714e-20)
(0.851162 0.857453 1.72981e-20)
(0.821884 0.819819 -1.77451e-20)
(0.77543 0.555842 -1.68353e-19)
(0.851371 0.607623 1.3266e-20)
(0.945465 0.654199 0)
(0.930782 0.636903 -1.39106e-20)
(0.959546 0.315627 5.54252e-20)
(1.0949 0.304574 -1.61536e-20)
(0.990974 0.227794 8.29248e-20)
(0.944795 0.342057 -1.25961e-19)
(0.952558 0.408809 0)
(1.01201 0.381199 0)
(0.827429 0.336765 2.22744e-21)
(0.809727 0.302653 0)
(0.834787 0.281833 1.84833e-19)
(0.807423 0.278721 -3.51091e-21)
(0.8645 0.41887 7.06468e-19)
(0.826631 0.492576 1.7747e-19)
(0.822587 0.450224 -2.39604e-19)
(0.772222 0.398469 2.57139e-19)
(0.73899 0.40664 1.72887e-19)
(0.713843 0.41311 -1.68549e-19)
(1.01316 0.0266226 1.96002e-19)
(1.01235 -0.00961531 0)
(1.00435 0.0205724 1.36119e-19)
(1.01384 0.0251867 -3.02562e-19)
(1.01168 0.000655933 1.44184e-19)
(1.01254 0.0222565 -3.01836e-19)
(1.00779 0.00442275 0)
(1.00454 -0.0101828 -6.48267e-20)
(1.01475 0.00486092 1.59896e-19)
(1.01816 -0.000243826 -8.22027e-20)
(1.00734 -0.00101859 6.23695e-20)
(0.00331275 1.82211 0)
(0.00421015 1.7673 0)
(0.000547537 1.82938 0)
(0.00291401 1.82689 0)
(0.0285202 1.78543 5.72979e-20)
(0.0381324 1.81571 -2.45726e-20)
(0.0791291 1.79133 -2.93014e-20)
(0.080781 1.8172 -4.49488e-20)
(0.0138947 1.77067 -7.63556e-20)
(0.0152059 1.77136 5.55515e-20)
(0.0240377 1.77666 -1.74714e-20)
(0.00620291 1.78559 -2.84014e-20)
(0.00839162 1.78222 -2.35177e-21)
(0.00296913 1.77512 -7.02435e-21)
(0.0479561 1.74007 -1.91579e-19)
(0.0778627 1.74763 0)
(0.0766424 1.74131 1.15761e-19)
(0.116072 1.76806 7.00748e-20)
(0.151356 1.72812 -7.65381e-20)
(0.105806 1.65455 0)
(0.104938 1.64528 -5.25708e-19)
(0.162234 1.64082 3.80811e-19)
(0.15184 1.72799 -2.25952e-19)
(0.120152 1.7204 1.29437e-19)
(0.0810959 1.69003 0)
(0.0192197 1.77187 -1.17735e-19)
(0.0174122 1.7684 -1.65187e-19)
(0.0125856 1.76863 0)
(0.0301635 1.77527 -3.64225e-21)
(0.0297325 1.77713 6.18538e-20)
(0.00267275 1.77735 6.8143e-21)
(0.00535026 1.78501 -1.03367e-19)
(0.00423651 1.78203 2.68002e-20)
(-0.00725036 1.76174 3.88808e-20)
(0.00150394 1.76123 0)
(-8.32048e-05 1.78686 0)
(-0.00518459 1.78607 3.43567e-20)
(-0.00151494 1.79037 -9.7787e-21)
(-0.00198981 1.78897 0)
(-0.00499872 1.78453 2.91429e-20)
(-0.0110046 1.78064 -5.5677e-20)
(0.995055 0.0245064 0)
(1.00208 0.0380633 -1.91131e-20)
(1.01271 0.00815966 -1.34864e-19)
(1.02688 0.0190647 0)
(1.02726 0.0383326 0)
(0.999272 -0.00379747 -1.11239e-20)
(0.999861 -0.00160655 2.20328e-19)
(1.00579 0.005552 2.87674e-19)
(1.01922 0.00397962 0)
(1.01827 0.00687673 0)
(1.00649 0.0146547 1.48135e-19)
(1.00292 0.0156847 0)
(1.00709 0.0154892 0)
(0.00469886 1.74199 0)
(0.0117287 1.76054 -6.91558e-22)
(0.00907752 1.75025 1.22219e-20)
(-0.000786706 1.7874 0)
(-0.00279561 1.76914 1.57421e-20)
(-0.000196261 1.77801 -1.14529e-20)
(-0.00191195 1.78828 0)
(0.376059 1.72049 0)
(0.268956 1.7771 -1.77207e-19)
(0.248506 1.74257 0)
(0.34389 1.75862 1.272e-19)
(0.359737 1.78295 0)
(0.355323 1.79869 -1.71063e-20)
(0.792703 1.80603 -1.71858e-20)
(0.788311 1.47485 -9.37592e-19)
(0.858412 1.4669 9.1659e-19)
(0.634284 1.50677 2.68812e-19)
(0.602997 1.63391 0)
(0.653222 1.67504 0)
(0.735423 1.47597 0)
(0.693516 1.47439 -9.38764e-19)
(0.416991 1.73008 -4.89521e-19)
(0.509382 1.62103 -1.41442e-19)
(0.518962 1.73122 1.14359e-19)
(0.406141 1.55533 0)
(0.548494 1.53813 0)
(0.456823 1.54597 -3.11426e-19)
(0.488721 1.60945 0)
(0.391844 0.914605 0)
(0.308704 0.657909 8.76793e-19)
(0.610118 0.617992 5.65986e-20)
(-0.0166576 1.17121 0)
(0.286438 1.27669 -1.3376e-18)
(0.683499 0.776205 4.61315e-20)
(0.662544 0.947046 0)
(0.665292 0.938033 -9.52028e-20)
(0.620496 0.6817 0)
(0.676124 0.704487 0)
(0.76505 2.66974 2.09848e-19)
(0.726334 2.94103 2.28464e-20)
(0.439361 2.75364 -1.53344e-19)
(0.393801 2.54986 -7.71356e-20)
(0.815986 2.34381 0)
(0.796872 2.22322 1.02125e-19)
(0.877516 2.04434 1.27927e-19)
(0.904668 1.79802 -4.33428e-21)
(0.249434 2.01533 0)
(0.0282018 1.72847 1.31677e-19)
(0.100583 1.70864 0)
(0.88949 0.194551 0)
(0.841225 0.172911 0)
(0.809939 0.17791 0)
(0.877997 0.220997 -2.91203e-19)
(0.818323 0.212998 1.87768e-19)
(0.90246 0.0800291 -1.65136e-19)
(0.908428 0.0902286 0)
(0.909618 0.0882743 7.10812e-20)
(0.87013 0.0823249 3.00785e-19)
(0.875147 0.0772895 -1.83833e-19)
(1.05366 3.52715 -7.83292e-19)
(1.0602 3.49562 0)
(1.08507 3.51588 -1.76017e-18)
(0.669237 3.68779 1.76643e-18)
(0.924251 3.19178 5.26953e-19)
(0.657588 0.782431 -1.39283e-19)
(0.630994 0.830013 0)
(0.648337 0.579658 -8.00183e-20)
(0.600209 0.621011 2.12394e-19)
(0.528517 0.65566 -1.23204e-19)
(0.554965 0.560916 1.30693e-19)
(0.616236 0.534115 2.62171e-19)
(0.685446 0.511918 0)
(0.62829 0.622506 0)
(0.58086 0.589134 0)
(0.967483 0.57003 -3.69671e-20)
(0.837874 0.489213 -1.69803e-19)
(0.820219 0.538333 7.1323e-20)
(0.883746 0.488 -1.26819e-19)
(0.968189 0.429839 0)
(1.005 0.515302 -5.70153e-21)
(0.782442 0.376605 -3.88713e-19)
(0.807419 0.365245 -4.31536e-19)
(0.753391 0.374317 3.03132e-19)
(0.742808 0.358731 -3.38361e-19)
(0.790176 0.335785 -2.55186e-19)
(0.748153 0.339394 3.14198e-19)
(1.01525 -0.0114881 -1.51127e-19)
(1.01929 -0.0105982 3.01626e-19)
(1.00834 0.0201897 1.85598e-19)
(1.00446 0.0323781 -2.28742e-19)
(0.983578 0.0314946 0)
(1.00061 -0.00847088 -3.5388e-19)
(0.0413328 1.7865 2.89753e-20)
(0.0342638 1.77981 0)
(0.0614056 1.77357 1.86297e-19)
(0.090595 1.78272 -1.56599e-19)
(0.0506337 1.80373 5.54248e-20)
(0.0399544 1.78587 0)
(-0.00976378 1.75341 0)
(-0.00517703 1.77171 -1.10414e-20)
(-0.000817068 1.78031 9.9802e-21)
(-0.00278613 1.77259 5.11265e-21)
(-0.00397937 1.74565 -1.94231e-20)
(0.000202925 1.7536 1.01554e-20)
(0.335316 1.88111 -5.30224e-19)
(0.347056 1.80114 5.43704e-19)
(0.332081 1.75518 -1.03357e-19)
(0.361928 1.78817 2.22189e-20)
(0.364582 1.52644 0)
(0.384505 1.73759 1.55397e-19)
(0.37746 1.64766 -1.50224e-19)
(0.304398 1.74794 1.02505e-19)
(0.29501 1.73948 0)
(0.227585 1.70607 0)
(0.383281 1.64611 7.52754e-19)
(0.387006 1.57941 1.2703e-18)
(0.440645 1.61334 -8.60877e-19)
(0.368962 1.60655 -1.54124e-19)
(0.308486 1.63623 2.52971e-19)
(0.254404 1.60952 -6.28145e-19)
(0.885719 1.54224 -4.94105e-19)
(0.914502 1.71015 0)
(0.915338 1.55664 -2.18814e-19)
(0.829071 2.03749 0)
(0.830859 1.94508 0)
(0.877196 2.53668 7.76248e-19)
(0.961868 3.36197 8.18314e-19)
(0.884167 3.19219 -6.4598e-19)
(0.532135 0.972574 0)
(0.656183 0.970967 -5.2376e-20)
(0.786088 0.841931 2.5312e-19)
(0.789881 2.10857 0)
(0.6437 2.82377 -4.08327e-19)
(0.512344 2.4831 0)
(0.681192 0.615326 -1.38498e-19)
(0.724851 0.645333 2.68944e-19)
(0.716241 0.63398 -2.72947e-19)
(0.66398 0.593626 -3.09301e-20)
(0.684985 0.588451 -1.44538e-19)
(0.854048 3.09955 -6.19105e-19)
(0.81208 3.22023 8.43966e-19)
(0.852363 2.6101 -1.33836e-18)
(0.77155 2.42796 8.92871e-19)
(0.482135 2.6426 1.02968e-18)
(0.736601 2.88431 -6.20262e-21)
(0.556924 2.99321 -6.47201e-19)
(0.691601 2.44719 -6.12925e-20)
(0.497254 2.49046 -4.26913e-19)
)
;

boundaryField
{
    wall-4
    {
        type            noSlip;
    }
    velocity-inlet-5
    {
        type            fixedValue;
        value           uniform (1 0 0);
    }
    velocity-inlet-6
    {
        type            fixedValue;
        value           uniform (0 3 0);
    }
    pressure-outlet-7
    {
        type            zeroGradient;
    }
    wall-8
    {
        type            noSlip;
    }
    frontAndBackPlanes
    {
        type            empty;
    }
}


// ************************************************************************* //
